DF-ISE text

Info {
  version   = 1.0
  type      = xyplot
  datasets  = [
    "time"
    "n1contact OuterVoltage" "n1contact InnerVoltage" "n1contact QuasiFermiPotential" "n1contact DisplacementCurrent" "n1contact eCurrent"
    "n1contact hCurrent" "n1contact TotalCurrent" "n1contact Charge" "n2contact OuterVoltage" "n2contact InnerVoltage"
    "n2contact QuasiFermiPotential" "n2contact DisplacementCurrent" "n2contact eCurrent" "n2contact hCurrent" "n2contact TotalCurrent"
    "n2contact Charge" ]
  functions = [
    Time
    OuterVoltage InnerVoltage QuasiFermiPotential DisplacementCurrent eCurrent
    hCurrent TotalCurrent Charge OuterVoltage InnerVoltage
    QuasiFermiPotential DisplacementCurrent eCurrent hCurrent TotalCurrent
    Charge ]
}

Data {
      0.00000000000000E+00
      0.00000000000000E+00   0.00000000000000E+00   0.00000000000000E+00   0.00000000000000E+00   8.80152497651060E-35
     -8.80152497651060E-35   0.00000000000000E+00   0.00000000000000E+00   0.00000000000000E+00   0.00000000000000E+00
      0.00000000000000E+00   0.00000000000000E+00   8.10871177214289E-35  -8.10871177214289E-35   0.00000000000000E+00
     -1.45158283484645E-32
      0.00000000000000E+00
      0.00000000000000E+00   0.00000000000000E+00   0.00000000000000E+00   0.00000000000000E+00   4.35495302446361E-35
     -1.17894275019438E-32  -1.17458779716992E-32   0.00000000000000E+00   0.00000000000000E+00   0.00000000000000E+00
      0.00000000000000E+00   0.00000000000000E+00   1.36770304432488E-35   1.17322009412559E-32   1.17458779716992E-32
      5.32247039443697E-32
      0.00000000000000E+00
      0.00000000000000E+00   0.00000000000000E+00   0.00000000000000E+00   0.00000000000000E+00   4.44275449673102E-35
     -1.17903055166665E-32  -1.17458779716992E-32   0.00000000000000E+00   0.00000000000000E+00   0.00000000000000E+00
      0.00000000000000E+00   0.00000000000000E+00   1.57630875059540E-35   1.17301148841932E-32   1.17458779716992E-32
      5.32247039443697E-32
      1.00000000000000E-01
      0.00000000000000E+00   0.00000000000000E+00   0.00000000000000E+00   0.00000000000000E+00  -6.06650540424806E-08
     -6.65037673996241E-20  -6.06650540425471E-08  -2.76814840132660E-20   1.00000000000000E-03   1.00000000000000E-03
      0.00000000000000E+00   0.00000000000000E+00   6.06650540424806E-08   6.66453462930488E-20   6.06650540425472E-08
      2.76814840132586E-20
      2.00000000000000E-01
      0.00000000000000E+00   0.00000000000000E+00   0.00000000000000E+00   0.00000000000000E+00  -1.22020723614688E-07
     -1.34459563419697E-19  -1.22020723614823E-07  -5.56780961187904E-20   2.00000000000000E-03   2.00000000000000E-03
      0.00000000000000E+00   0.00000000000000E+00   1.22020723614688E-07   1.34744815443385E-19   1.22020723614823E-07
      5.56780961187663E-20
      3.00000000000000E-01
      0.00000000000000E+00   0.00000000000000E+00   0.00000000000000E+00   0.00000000000000E+00  -1.84062265866291E-07
     -2.03891738235954E-19  -1.84062265866495E-07  -8.39876721523616E-20   3.00000000000000E-03   3.00000000000000E-03
      0.00000000000000E+00   0.00000000000000E+00   1.84062265866291E-07   2.04322780246640E-19   1.84062265866496E-07
      8.39876721522938E-20
      4.00000000000000E-01
      0.00000000000000E+00   0.00000000000000E+00   0.00000000000000E+00   0.00000000000000E+00  -2.46784811872291E-07
     -2.74824957825149E-19  -2.46784811872566E-07  -1.12607990421958E-19   4.00000000000000E-03   4.00000000000000E-03
      0.00000000000000E+00   0.00000000000000E+00   2.46784811872291E-07   2.75403928877151E-19   2.46784811872567E-07
      1.12607990422010E-19
      5.00000000000000E-01
      0.00000000000000E+00   0.00000000000000E+00   0.00000000000000E+00   0.00000000000000E+00  -3.10183366530360E-07
     -3.47284202487003E-19  -3.10183366530708E-07  -1.41536771660710E-19   5.00000000000000E-03   5.00000000000000E-03
      0.00000000000000E+00   0.00000000000000E+00   3.10183366530360E-07   3.48013263401792E-19   3.10183366530708E-07
      1.41536771660735E-19
      6.00000000000000E-01
      0.00000000000000E+00   0.00000000000000E+00   0.00000000000000E+00   0.00000000000000E+00  -3.74252818346862E-07
     -4.21294768975693E-19  -3.74252818347284E-07  -1.70771683492416E-19   6.00000000000000E-03   6.00000000000000E-03
      0.00000000000000E+00   0.00000000000000E+00   3.74252818346862E-07   4.22176101913429E-19   3.74252818347285E-07
      1.70771683492415E-19
      7.00000000000000E-01
      0.00000000000000E+00   0.00000000000000E+00   0.00000000000000E+00   0.00000000000000E+00  -4.38987947410983E-07
     -4.96882271689354E-19  -4.38987947411480E-07  -2.00310344070069E-19   7.00000000000000E-03   7.00000000000000E-03
      0.00000000000000E+00   0.00000000000000E+00   4.38987947410982E-07   4.97918079720556E-19   4.38987947411480E-07
      2.00310344070001E-19
      8.00000000000000E-01
      0.00000000000000E+00   0.00000000000000E+00   0.00000000000000E+00   0.00000000000000E+00  -5.04383433205167E-07
     -5.74072643554937E-19  -5.04383433205741E-07  -2.30150325639760E-19   8.00000000000000E-03   8.00000000000000E-03
      0.00000000000000E+00   0.00000000000000E+00   5.04383433205167E-07   5.75265150232174E-19   5.04383433205742E-07
      2.30150325639751E-19
      9.00000000000000E-01
      0.00000000000000E+00   0.00000000000000E+00   0.00000000000000E+00   0.00000000000000E+00  -5.70433862246348E-07
     -6.52892136603499E-19  -5.70433862247001E-07  -2.60289158027395E-19   9.00000000000000E-03   9.00000000000000E-03
      0.00000000000000E+00   0.00000000000000E+00   5.70433862246348E-07   6.54243585532939E-19   5.70433862247002E-07
      2.60289158027402E-19
      1.00000000000000E+00
      0.00000000000000E+00   0.00000000000000E+00   0.00000000000000E+00   0.00000000000000E+00  -6.37133735543274E-07
     -7.33367322227991E-19  -6.37133735544007E-07  -2.90724332041474E-19   1.00000000000000E-02   1.00000000000000E-02
      0.00000000000000E+00   0.00000000000000E+00   6.37133735543274E-07   7.34879976640696E-19   6.37133735544009E-07
      2.90724332041526E-19
      0.00000000000000E+00
      0.00000000000000E+00   0.00000000000000E+00   0.00000000000000E+00   0.00000000000000E+00  -6.37133735543294E-07
     -7.33367322228003E-19  -6.37133735544027E-07  -2.90724332041474E-19   1.00000000000000E-02   1.00000000000000E-02
      0.00000000000000E+00   0.00000000000000E+00   6.37133735543293E-07   7.34879976640707E-19   6.37133735544028E-07
      2.90724332041458E-19
      1.00000000000000E-01
      0.00000000000000E+00   0.00000000000000E+00   0.00000000000000E+00   0.00000000000000E+00  -1.26571693331341E-06
     -1.53669187286695E-18  -1.26571693331495E-06  -5.77547050898627E-19   1.90000000000000E-02   1.90000000000000E-02
      0.00000000000000E+00   0.00000000000000E+00   1.26571693331341E-06   1.53976024714952E-18   1.26571693331495E-06
      5.77547050898563E-19
      2.00000000000000E-01
      0.00000000000000E+00   0.00000000000000E+00   0.00000000000000E+00   0.00000000000000E+00  -1.94218173296333E-06
     -2.49722029715105E-18  -1.94218173296582E-06  -8.86218160363439E-19   2.80000000000000E-02   2.80000000000000E-02
      0.00000000000000E+00   0.00000000000000E+00   1.94218173296333E-06   2.50204144821189E-18   1.94218173296583E-06
      8.86218160363453E-19
      3.00000000000000E-01
      0.00000000000000E+00   0.00000000000000E+00   0.00000000000000E+00   0.00000000000000E+00  -2.66216423705267E-06
     -3.63763619960488E-18  -2.66216423705631E-06  -1.21474641260570E-18   3.70000000000000E-02   3.70000000000000E-02
      0.00000000000000E+00   0.00000000000000E+00   2.66216423705267E-06   3.64441669730628E-18   2.66216423705632E-06
      1.21474641260568E-18
      4.00000000000000E-01
      0.00000000000000E+00   0.00000000000000E+00   0.00000000000000E+00   0.00000000000000E+00  -3.42141332738283E-06
     -4.98226822851973E-18  -3.42141332738782E-06  -1.56119202100003E-18   4.60000000000000E-02   4.60000000000000E-02
      0.00000000000000E+00   0.00000000000000E+00   3.42141332738283E-06   4.99122114199142E-18   3.42141332738782E-06
      1.56119202100005E-18
      5.00000000000000E-01
      0.00000000000000E+00   0.00000000000000E+00   0.00000000000000E+00   0.00000000000000E+00  -4.21593879855354E-06
     -6.55664218798723E-18  -4.21593879856009E-06  -1.92373425351637E-18   5.50000000000000E-02   5.50000000000000E-02
      0.00000000000000E+00   0.00000000000000E+00   4.21593879855354E-06   6.56798395688939E-18   4.21593879856010E-06
      1.92373425351635E-18
      6.00000000000000E-01
      0.00000000000000E+00   0.00000000000000E+00   0.00000000000000E+00   0.00000000000000E+00  -5.04208696464242E-06
     -8.38691849826262E-18  -5.04208696465080E-06  -2.30070593207257E-18   6.40000000000000E-02   6.40000000000000E-02
      0.00000000000000E+00   0.00000000000000E+00   5.04208696464241E-06   8.40086573857631E-18   5.04208696465082E-06
      2.30070593207258E-18
      7.00000000000000E-01
      0.00000000000000E+00   0.00000000000000E+00   0.00000000000000E+00   0.00000000000000E+00  -5.89656697926681E-06
     -1.04992635643302E-17  -5.89656697927731E-06  -2.69060544238714E-18   7.30000000000000E-02   7.30000000000000E-02
      0.00000000000000E+00   0.00000000000000E+00   5.89656697926681E-06   1.05160299007567E-17   5.89656697927733E-06
      2.69060544238716E-18
      8.00000000000000E-01
      0.00000000000000E+00   0.00000000000000E+00   0.00000000000000E+00   0.00000000000000E+00  -6.77644648804444E-06
     -1.29192076938395E-17  -6.77644648805736E-06  -3.09209475019575E-18   8.20000000000000E-02   8.20000000000000E-02
      0.00000000000000E+00   0.00000000000000E+00   6.77644648804443E-06   1.29390007363667E-17   6.77644648805737E-06
      3.09209475019573E-18
      9.00000000000000E-01
      0.00000000000000E+00   0.00000000000000E+00   0.00000000000000E+00   0.00000000000000E+00  -7.67913004603140E-06
     -1.56710402388094E-17  -7.67913004604707E-06  -3.50398955312103E-18   9.10000000000000E-02   9.10000000000000E-02
      0.00000000000000E+00   0.00000000000000E+00   7.67913004603140E-06   1.56940588264711E-17   7.67913004604709E-06
      3.50398955312105E-18
      1.00000000000000E+00
      0.00000000000000E+00   0.00000000000000E+00   0.00000000000000E+00   0.00000000000000E+00  -8.60232920934205E-06
     -1.87772849538141E-17  -8.60232920936083E-06  -3.92524563346896E-18   1.00000000000000E-01   1.00000000000000E-01
      0.00000000000000E+00   0.00000000000000E+00   8.60232920934204E-06   1.88037167752940E-17   8.60232920936085E-06
      3.92524563346897E-18
      0.00000000000000E+00
      0.00000000000000E+00   0.00000000000000E+00   0.00000000000000E+00   0.00000000000000E+00  -8.60232920937687E-06
     -1.87772849537899E-17  -8.60232920939565E-06  -3.92524563348486E-18   1.00000000000000E-01   1.00000000000000E-01
      0.00000000000000E+00   0.00000000000000E+00   8.60232920937687E-06   1.88037167752698E-17   8.60232920939567E-06
      3.92524563348484E-18
      2.00000000000000E-02
      0.00000000000000E+00   0.00000000000000E+00   0.00000000000000E+00   0.00000000000000E+00  -1.05024597651078E-05
     -2.61319250597042E-17  -1.05024597651339E-05  -4.79227582790627E-18   1.18000000000000E-01   1.18000000000000E-01
      0.00000000000000E+00   0.00000000000000E+00   1.05024597651077E-05   2.61656927136194E-17   1.05024597651339E-05
      4.79227582790630E-18
      4.00000000000000E-02
      0.00000000000000E+00   0.00000000000000E+00   0.00000000000000E+00   0.00000000000000E+00  -1.24634507940121E-05
     -3.51154961202178E-17  -1.24634507940472E-05  -5.68707667615156E-18   1.36000000000000E-01   1.36000000000000E-01
      0.00000000000000E+00   0.00000000000000E+00   1.24634507940121E-05   3.51571781299382E-17   1.24634507940473E-05
      5.68707667615157E-18
      6.00000000000000E-02
      0.00000000000000E+00   0.00000000000000E+00   0.00000000000000E+00   0.00000000000000E+00  -1.44748918767772E-05
     -4.58186733335871E-17  -1.44748918768230E-05  -6.60489790048126E-18   1.54000000000000E-01   1.54000000000000E-01
      0.00000000000000E+00   0.00000000000000E+00   1.44748918767772E-05   4.58687225134737E-17   1.44748918768231E-05
      6.60489790048125E-18
      8.00000000000000E-02
      0.00000000000000E+00   0.00000000000000E+00   0.00000000000000E+00   0.00000000000000E+00  -1.65286220120616E-05
     -5.82933640759995E-17  -1.65286220121199E-05  -7.54201563331249E-18   1.72000000000000E-01   1.72000000000000E-01
      0.00000000000000E+00   0.00000000000000E+00   1.65286220120616E-05   5.83521127118501E-17   1.65286220121200E-05
      7.54201563331250E-18
      1.00000000000000E-01
      0.00000000000000E+00   0.00000000000000E+00   0.00000000000000E+00   0.00000000000000E+00  -1.86181783787494E-05
     -7.25590051873044E-17  -1.86181783788220E-05  -8.49548088725499E-18   1.90000000000000E-01   1.90000000000000E-01
      0.00000000000000E+00   0.00000000000000E+00   1.86181783787494E-05   7.26266778221328E-17   1.86181783788220E-05
      8.49548088725503E-18
      1.20000000000000E-01
      0.00000000000000E+00   0.00000000000000E+00   0.00000000000000E+00   0.00000000000000E+00  -2.07383870789405E-05
     -8.86096212545260E-17  -2.07383870790291E-05  -9.46293281100389E-18   2.08000000000000E-01   2.08000000000000E-01
      0.00000000000000E+00   0.00000000000000E+00   2.07383870789405E-05   8.86863505767326E-17   2.07383870790292E-05
      9.46293281100392E-18
      1.40000000000000E-01
      0.00000000000000E+00   0.00000000000000E+00   0.00000000000000E+00   0.00000000000000E+00  -2.28850608535008E-05
     -1.06420034286761E-16  -2.28850608536073E-05  -1.04424607568461E-17   2.26000000000000E-01   2.26000000000000E-01
      0.00000000000000E+00   0.00000000000000E+00   2.28850608535008E-05   1.06505876922491E-16   2.28850608536073E-05
      1.04424607568461E-17
      1.60000000000000E-01
      0.00000000000000E+00   0.00000000000000E+00   0.00000000000000E+00   0.00000000000000E+00  -2.50547752081005E-05
     -1.25950630664592E-16  -2.50547752082264E-05  -1.14325021268983E-17   2.44000000000000E-01   2.44000000000000E-01
      0.00000000000000E+00   0.00000000000000E+00   2.50547752081005E-05   1.26045581145636E-16   2.50547752082265E-05
      1.14325021268983E-17
      1.80000000000000E-01
      0.00000000000000E+00   0.00000000000000E+00   0.00000000000000E+00   0.00000000000000E+00  -2.72447015051916E-05
     -1.47150747506987E-16  -2.72447015053388E-05  -1.24317662129218E-17   2.62000000000000E-01   2.62000000000000E-01
      0.00000000000000E+00   0.00000000000000E+00   2.72447015051916E-05   1.47254749818830E-16   2.72447015053388E-05
      1.24317662129218E-17
      2.00000000000000E-01
      0.00000000000000E+00   0.00000000000000E+00   0.00000000000000E+00   0.00000000000000E+00  -2.94524814365903E-05
     -1.69961016966069E-16  -2.94524814367603E-05  -1.34391769181206E-17   2.80000000000000E-01   2.80000000000000E-01
      0.00000000000000E+00   0.00000000000000E+00   2.94524814365903E-05   1.70073973755634E-16   2.94524814367603E-05
      1.34391769181206E-17
      2.20000000000000E-01
      0.00000000000000E+00   0.00000000000000E+00   0.00000000000000E+00   0.00000000000000E+00  -3.16761317022448E-05
     -1.94315035244440E-16  -3.16761317024391E-05  -1.44538292620322E-17   2.98000000000000E-01   2.98000000000000E-01
      0.00000000000000E+00   0.00000000000000E+00   3.16761317022448E-05   1.94436815067973E-16   3.16761317024392E-05
      1.44538292620322E-17
      2.40000000000000E-01
      0.00000000000000E+00   0.00000000000000E+00   0.00000000000000E+00   0.00000000000000E+00  -3.39139709028625E-05
     -2.20140641914235E-16  -3.39139709030826E-05  -1.54749560216092E-17   3.16000000000000E-01   3.16000000000000E-01
      0.00000000000000E+00   0.00000000000000E+00   3.39139709028624E-05   2.20271084972954E-16   3.39139709030827E-05
      1.54749560216091E-17
      2.60000000000000E-01
      0.00000000000000E+00   0.00000000000000E+00   0.00000000000000E+00   0.00000000000000E+00  -3.61645629124664E-05
     -2.47360992996081E-16  -3.61645629127138E-05  -1.65019018920983E-17   3.34000000000000E-01   3.34000000000000E-01
      0.00000000000000E+00   0.00000000000000E+00   3.61645629124664E-05   2.47499915759259E-16   3.61645629127139E-05
      1.65019018920983E-17
      2.80000000000000E-01
      0.00000000000000E+00   0.00000000000000E+00   0.00000000000000E+00   0.00000000000000E+00  -3.84266725918635E-05
     -2.75895527848789E-16  -3.84266725921394E-05  -1.75341032790818E-17   3.52000000000000E-01   3.52000000000000E-01
      0.00000000000000E+00   0.00000000000000E+00   3.84266725918635E-05   2.76042726876667E-16   3.84266725921395E-05
      1.75341032790818E-17
      3.00000000000000E-01
      0.00000000000000E+00   0.00000000000000E+00   0.00000000000000E+00   0.00000000000000E+00  -4.06992308318363E-05
     -3.05660874594011E-16  -4.06992308321420E-05  -1.85710723476738E-17   3.70000000000000E-01   3.70000000000000E-01
      0.00000000000000E+00   0.00000000000000E+00   4.06992308318363E-05   3.05816129785803E-16   4.06992308321421E-05
      1.85710723476737E-17
      3.20000000000000E-01
      0.00000000000000E+00   0.00000000000000E+00   0.00000000000000E+00   0.00000000000000E+00  -4.29813067163015E-05
     -3.36571707481925E-16  -4.29813067166381E-05  -1.96123843205609E-17   3.88000000000000E-01   3.88000000000000E-01
      0.00000000000000E+00   0.00000000000000E+00   4.29813067163015E-05   3.36734784902669E-16   4.29813067166382E-05
      1.96123843205609E-17
      3.40000000000000E-01
      0.00000000000000E+00   0.00000000000000E+00   0.00000000000000E+00   0.00000000000000E+00  -4.52720851691354E-05
     -3.68541554713434E-16  -4.52720851695040E-05  -2.06576672782415E-17   4.06000000000000E-01   4.06000000000000E-01
      0.00000000000000E+00   0.00000000000000E+00   4.52720851691354E-05   3.68712209100814E-16   4.52720851695041E-05
      2.06576672782415E-17
      3.60000000000000E-01
      0.00000000000000E+00   0.00000000000000E+00   0.00000000000000E+00   0.00000000000000E+00  -4.75708488618924E-05
     -4.01483550022130E-16  -4.75708488622939E-05  -2.17065939035110E-17   4.24000000000000E-01   4.24000000000000E-01
      0.00000000000000E+00   0.00000000000000E+00   4.75708488618924E-05   4.01661527038173E-16   4.75708488622940E-05
      2.17065939035110E-17
      3.80000000000000E-01
      0.00000000000000E+00   0.00000000000000E+00   0.00000000000000E+00   0.00000000000000E+00  -4.98769634604678E-05
     -4.35311121062559E-16  -4.98769634609032E-05  -2.27588747495100E-17   4.42000000000000E-01   4.42000000000000E-01
      0.00000000000000E+00   0.00000000000000E+00   4.98769634604678E-05   4.35496159331477E-16   4.98769634609033E-05
      2.27588747495100E-17
      4.00000000000000E-01
      0.00000000000000E+00   0.00000000000000E+00   0.00000000000000E+00   0.00000000000000E+00  -5.21898655094558E-05
     -4.69938609492305E-16  -5.21898655099257E-05  -2.38142527113525E-17   4.60000000000000E-01   4.60000000000000E-01
      0.00000000000000E+00   0.00000000000000E+00   5.21898655094558E-05   4.70130442450978E-16   5.21898655099259E-05
      2.38142527113525E-17
      4.20000000000000E-01
      0.00000000000000E+00   0.00000000000000E+00   0.00000000000000E+00   0.00000000000000E+00  -5.45090524162930E-05
     -5.05281820045462E-16  -5.45090524167983E-05  -2.48724984558874E-17   4.78000000000000E-01   4.78000000000000E-01
      0.00000000000000E+00   0.00000000000000E+00   5.45090524162929E-05   5.05480177624134E-16   5.45090524167984E-05
      2.48724984558875E-17
      4.40000000000000E-01
      0.00000000000000E+00   0.00000000000000E+00   0.00000000000000E+00   0.00000000000000E+00  -5.68340741192203E-05
     -5.41258498161383E-16  -5.68340741197616E-05  -2.59334066197871E-17   4.96000000000000E-01   4.96000000000000E-01
      0.00000000000000E+00   0.00000000000000E+00   5.68340741192203E-05   5.41463108307040E-16   5.68340741197617E-05
      2.59334066197871E-17
      4.60000000000000E-01
      0.00000000000000E+00   0.00000000000000E+00   0.00000000000000E+00   0.00000000000000E+00  -5.91645261148754E-05
     -5.77788737590366E-16  -5.91645261154532E-05  -2.69967926280348E-17   5.14000000000000E-01   5.14000000000000E-01
      0.00000000000000E+00   0.00000000000000E+00   5.91645261148754E-05   5.77999327642408E-16   5.91645261154534E-05
      2.69967926280348E-17
      4.80000000000000E-01
      0.00000000000000E+00   0.00000000000000E+00   0.00000000000000E+00   0.00000000000000E+00  -6.15000435909737E-05
     -6.14795320801071E-16  -6.15000435915885E-05  -2.80624900166659E-17   5.32000000000000E-01   5.32000000000000E-01
      0.00000000000000E+00   0.00000000000000E+00   6.15000435909736E-05   6.15011618727470E-16   6.15000435915886E-05
      2.80624900166659E-17
      5.00000000000000E-01
      0.00000000000000E+00   0.00000000000000E+00   0.00000000000000E+00   0.00000000000000E+00  -6.38402964628094E-05
     -6.52203996008317E-16  -6.38402964634616E-05  -2.91303481679212E-17   5.50000000000000E-01   5.50000000000000E-01
      0.00000000000000E+00   0.00000000000000E+00   6.38402964628094E-05   6.52425731509787E-16   6.38402964634618E-05
      2.91303481679212E-17
      5.20000000000000E-01
      0.00000000000000E+00   0.00000000000000E+00   0.00000000000000E+00   0.00000000000000E+00  -6.61849851533372E-05
     -6.89943695296718E-16  -6.61849851540272E-05  -3.02002303846969E-17   5.68000000000000E-01   5.68000000000000E-01
      0.00000000000000E+00   0.00000000000000E+00   6.61849851533372E-05   6.90170600786163E-16   6.61849851540273E-05
      3.02002303846969E-17
      5.40000000000000E-01
      0.00000000000000E+00   0.00000000000000E+00   0.00000000000000E+00   0.00000000000000E+00  -6.85338369884404E-05
     -7.27946698707410E-16  -6.85338369891684E-05  -3.12720122457044E-17   5.86000000000000E-01   5.86000000000000E-01
      0.00000000000000E+00   0.00000000000000E+00   6.85338369884403E-05   7.28178510171881E-16   6.85338369891685E-05
      3.12720122457045E-17
      5.60000000000000E-01
      0.00000000000000E+00   0.00000000000000E+00   0.00000000000000E+00   0.00000000000000E+00  -7.08866031038991E-05
     -7.66148749343194E-16  -7.08866031046653E-05  -3.23455801941190E-17   6.04000000000000E-01   6.04000000000000E-01
      0.00000000000000E+00   0.00000000000000E+00   7.08866031038991E-05   7.66385207095593E-16   7.08866031046654E-05
      3.23455801941190E-17
      5.80000000000000E-01
      0.00000000000000E+00   0.00000000000000E+00   0.00000000000000E+00   0.00000000000000E+00  -7.32430557801079E-05
     -8.04489124579938E-16  -7.32430557809124E-05  -3.34208303214101E-17   6.22000000000000E-01   6.22000000000000E-01
      0.00000000000000E+00   0.00000000000000E+00   7.32430557801078E-05   8.04729973907774E-16   7.32430557809126E-05
      3.34208303214101E-17
      6.00000000000000E-01
      0.00000000000000E+00   0.00000000000000E+00   0.00000000000000E+00   0.00000000000000E+00  -7.56029861361235E-05
     -8.42910668388672E-16  -7.56029861369664E-05  -3.44976673151351E-17   6.40000000000000E-01   6.40000000000000E-01
      0.00000000000000E+00   0.00000000000000E+00   7.56029861361235E-05   8.43155660107112E-16   7.56029861369666E-05
      3.44976673151351E-17
      6.20000000000000E-01
      0.00000000000000E+00   0.00000000000000E+00   0.00000000000000E+00   0.00000000000000E+00  -7.79662021269260E-05
     -8.81359789601798E-16  -7.79662021278073E-05  -3.55760035450886E-17   6.58000000000000E-01   6.58000000000000E-01
      0.00000000000000E+00   0.00000000000000E+00   7.79662021269259E-05   8.81608680518240E-16   7.79662021278075E-05
      3.55760035450886E-17
      6.40000000000000E-01
      0.00000000000000E+00   0.00000000000000E+00   0.00000000000000E+00   0.00000000000000E+00  -8.03325267976773E-05
     -9.19786430723194E-16  -8.03325267985971E-05  -3.66557582667202E-17   6.76000000000000E-01   6.76000000000000E-01
      0.00000000000000E+00   0.00000000000000E+00   8.03325267976773E-05   9.20038984020453E-16   8.03325267985973E-05
      3.66557582667202E-17
      6.60000000000000E-01
      0.00000000000000E+00   0.00000000000000E+00   0.00000000000000E+00   0.00000000000000E+00  -8.27017967566998E-05
     -9.58144011603451E-16  -8.27017967576579E-05  -3.77368569243538E-17   6.94000000000000E-01   6.94000000000000E-01
      0.00000000000000E+00   0.00000000000000E+00   8.27017967566997E-05   9.58399997148481E-16   8.27017967576581E-05
      3.77368569243538E-17
      6.80000000000000E-01
      0.00000000000000E+00   0.00000000000000E+00   0.00000000000000E+00   0.00000000000000E+00  -8.50738608353492E-05
     -9.96389351994019E-16  -8.50738608363456E-05  -3.88192305396878E-17   7.12000000000000E-01   7.12000000000000E-01
      0.00000000000000E+00   0.00000000000000E+00   8.50738608353491E-05   9.96648546578855E-16   8.50738608363457E-05
      3.88192305396878E-17
      7.00000000000000E-01
      0.00000000000000E+00   0.00000000000000E+00   0.00000000000000E+00   0.00000000000000E+00  -8.74485789081837E-05
     -1.03448257666929E-15  -8.74485789092182E-05  -3.99028151734373E-17   7.30000000000000E-01   7.30000000000000E-01
      0.00000000000000E+00   0.00000000000000E+00   8.74485789081836E-05   1.03474476419067E-15   8.74485789092184E-05
      3.99028151734373E-17
      7.20000000000000E-01
      0.00000000000000E+00   0.00000000000000E+00   0.00000000000000E+00   0.00000000000000E+00  -8.98258208511238E-05
     -1.07238700647419E-15  -8.98258208521962E-05  -4.09875514499422E-17   7.48000000000000E-01   7.48000000000000E-01
      0.00000000000000E+00   0.00000000000000E+00   8.98258208511237E-05   1.07265197805796E-15   8.98258208521964E-05
      4.09875514499422E-17
      7.40000000000000E-01
      0.00000000000000E+00   0.00000000000000E+00   0.00000000000000E+00   0.00000000000000E+00  -9.22054656188043E-05
     -1.11006903832411E-15  -9.22054656199143E-05  -4.20733841361628E-17   7.66000000000000E-01   7.66000000000000E-01
      0.00000000000000E+00   0.00000000000000E+00   9.22054656188042E-05   1.11033659240027E-15   9.22054656199146E-05
      4.20733841361628E-17
      7.60000000000000E-01
      0.00000000000000E+00   0.00000000000000E+00   0.00000000000000E+00   0.00000000000000E+00  -9.45874004252289E-05
     -1.14749801686087E-15  -9.45874004263764E-05  -4.31602617678121E-17   7.84000000000000E-01   7.84000000000000E-01
      0.00000000000000E+00   0.00000000000000E+00   9.45874004252289E-05   1.14776795919470E-15   9.45874004263766E-05
      4.31602617678121E-17
      7.80000000000000E-01
      0.00000000000000E+00   0.00000000000000E+00   0.00000000000000E+00   0.00000000000000E+00  -9.69715200142386E-05
     -1.18464610015720E-15  -9.69715200154233E-05  -4.42481363164704E-17   8.02000000000000E-01   8.02000000000000E-01
      0.00000000000000E+00   0.00000000000000E+00   9.69715200142386E-05   1.18491824384159E-15   9.69715200154235E-05
      4.42481363164704E-17
      8.00000000000000E-01
      0.00000000000000E+00   0.00000000000000E+00   0.00000000000000E+00   0.00000000000000E+00  -9.93577260083041E-05
     -1.22148812156710E-15  -9.93577260095256E-05  -4.53369628924389E-17   8.20000000000000E-01   8.20000000000000E-01
      0.00000000000000E+00   0.00000000000000E+00   9.93577260083040E-05   1.22176228698087E-15   9.93577260095258E-05
      4.53369628924389E-17
      8.20000000000000E-01
      0.00000000000000E+00   0.00000000000000E+00   0.00000000000000E+00   0.00000000000000E+00  -1.01745926325818E-04
     -1.25800144954218E-15  -1.01745926327076E-04  -4.64266994788500E-17   8.38000000000000E-01   8.38000000000000E-01
      0.00000000000000E+00   0.00000000000000E+00   1.01745926325818E-04   1.25827746427874E-15   1.01745926327076E-04
      4.64266994788500E-17
      8.40000000000000E-01
      0.00000000000000E+00   0.00000000000000E+00   0.00000000000000E+00   0.00000000000000E+00  -1.04136034658474E-04
     -1.29416584697760E-15  -1.04136034659768E-04  -4.75173066931953E-17   8.56000000000000E-01   8.56000000000000E-01
      0.00000000000000E+00   0.00000000000000E+00   1.04136034658474E-04   1.29444354574815E-15   1.04136034659768E-04
      4.75173066931953E-17
      8.60000000000000E-01
      0.00000000000000E+00   0.00000000000000E+00   0.00000000000000E+00   0.00000000000000E+00  -1.06527970001481E-04
     -1.32996333141490E-15  -1.06527970002811E-04  -4.86087475729623E-17   8.74000000000000E-01   8.74000000000000E-01
      0.00000000000000E+00   0.00000000000000E+00   1.06527970001481E-04   1.33024255592969E-15   1.06527970002811E-04
      4.86087475729623E-17
      8.80000000000000E-01
      0.00000000000000E+00   0.00000000000000E+00   0.00000000000000E+00   0.00000000000000E+00  -1.08921656230365E-04
     -1.36537803721414E-15  -1.08921656231731E-04  -4.97009873825287E-17   8.92000000000000E-01   8.92000000000000E-01
      0.00000000000000E+00   0.00000000000000E+00   1.08921656230365E-04   1.36565863604533E-15   1.08921656231731E-04
      4.97009873825288E-17
      9.00000000000000E-01
      0.00000000000000E+00   0.00000000000000E+00   0.00000000000000E+00   0.00000000000000E+00  -1.11317021718956E-04
     -1.40039608061408E-15  -1.11317021720356E-04  -5.07939934388490E-17   9.10000000000000E-01   9.10000000000000E-01
      0.00000000000000E+00   0.00000000000000E+00   1.11317021718955E-04   1.40067790904325E-15   1.11317021720356E-04
      5.07939934388489E-17
      9.20000000000000E-01
      0.00000000000000E+00   0.00000000000000E+00   0.00000000000000E+00   0.00000000000000E+00  -1.13713998993849E-04
     -1.43500542842532E-15  -1.13713998995284E-04  -5.18877349537874E-17   9.28000000000000E-01   9.28000000000000E-01
      0.00000000000000E+00   0.00000000000000E+00   1.13713998993849E-04   1.43528834827832E-15   1.13713998995284E-04
      5.18877349537874E-17
      9.40000000000001E-01