DF-ISE text

Info {
  version   = 1.0
  type      = xyplot
  datasets  = [
    "time"
    "n OuterVoltage" "n InnerVoltage" "n QuasiFermiPotential" "n DisplacementCurrent" "n eCurrent"
    "n hCurrent" "n TotalCurrent" "n Charge" "p OuterVoltage" "p InnerVoltage"
    "p QuasiFermiPotential" "p DisplacementCurrent" "p eCurrent" "p hCurrent" "p TotalCurrent"
    "p Charge" ]
  functions = [
    Time
    OuterVoltage InnerVoltage QuasiFermiPotential DisplacementCurrent eCurrent
    hCurrent TotalCurrent Charge OuterVoltage InnerVoltage
    QuasiFermiPotential DisplacementCurrent eCurrent hCurrent TotalCurrent
    Charge ]
}

Data {
      0.00000000000000E+00
      0.00000000000000E+00   0.00000000000000E+00   0.00000000000000E+00   0.00000000000000E+00  -1.73729483190709E-22
      1.62053994021191E-25  -1.73567429196687E-22   7.16075864309771E-16   0.00000000000000E+00   0.00000000000000E+00
      0.00000000000000E+00   0.00000000000000E+00   1.73729483197536E-22  -1.62054000924723E-25   1.73567429196611E-22
     -7.16075864309772E-16
      0.00000000000000E+00
      0.00000000000000E+00   0.00000000000000E+00   0.00000000000000E+00   0.00000000000000E+00   2.82436701703553E-21
      3.55225523161369E-27   2.82437056929076E-21   7.16075864304398E-16   0.00000000000000E+00   0.00000000000000E+00
      0.00000000000000E+00   0.00000000000000E+00  -2.82436701703641E-21  -3.55225281426017E-27  -2.82437056928923E-21
     -7.16075864304397E-16
      0.00000000000000E+00
      0.00000000000000E+00   0.00000000000000E+00   0.00000000000000E+00   0.00000000000000E+00   2.84731352021198E-21
     -4.79232079947591E-27   2.84730872789118E-21   7.16075864304398E-16   0.00000000000000E+00   0.00000000000000E+00
      0.00000000000000E+00   0.00000000000000E+00  -2.84731352021738E-21   4.79232303567684E-27  -2.84730872789434E-21
     -7.16075864304397E-16
      2.00000000000000E-02
      0.00000000000000E+00   0.00000000000000E+00   0.00000000000000E+00   0.00000000000000E+00  -4.71344876870242E-18
      1.75538472152895E-24  -4.71344701331770E-18   6.93894969397034E-16   4.00000000000000E-02   4.00000000000000E-02
      0.00000000000000E+00   0.00000000000000E+00   2.91951529646353E-18   1.79393171685416E-18   4.71344701331769E-18
     -6.93894969397036E-16
      4.00000000000000E-02
      0.00000000000000E+00   0.00000000000000E+00   0.00000000000000E+00   0.00000000000000E+00  -2.37187570435514E-17
      2.94893071095965E-23  -2.37187275542442E-17   6.71227552397599E-16   8.00000000000000E-02   8.00000000000000E-02
      0.00000000000000E+00   0.00000000000000E+00   1.70419243523729E-17   6.67680320187129E-18   2.37187275542442E-17
     -6.71227552397599E-16
      6.00000000000000E-02
      0.00000000000000E+00   0.00000000000000E+00   0.00000000000000E+00   0.00000000000000E+00  -1.02746995911490E-16
      5.25344016407727E-26  -1.02746995858956E-16   6.47991602887444E-16   1.20000000000000E-01   1.20000000000000E-01
      0.00000000000000E+00   0.00000000000000E+00   7.98804669098052E-17   2.28665289491503E-17   1.02746995858956E-16
     -6.47991602887444E-16
      8.00000000000000E-02
      0.00000000000000E+00   0.00000000000000E+00   0.00000000000000E+00   0.00000000000000E+00  -4.61640989085199E-16
      7.13392801393411E-26  -4.61640989013859E-16   6.24092079074726E-16   1.60000000000000E-01   1.60000000000000E-01
      0.00000000000000E+00   0.00000000000000E+00   3.77071421601095E-16   8.45695674127655E-17   4.61640989013860E-16
     -6.24092079074724E-16
      1.00000000000000E-01
      0.00000000000000E+00   0.00000000000000E+00   0.00000000000000E+00   0.00000000000000E+00  -2.11119641311299E-15
     -4.11929256187675E-25  -2.11119641352492E-15   5.99428571276619E-16   2.00000000000000E-01   2.00000000000000E-01
      0.00000000000000E+00   0.00000000000000E+00   1.76913472719807E-15   3.42061686326844E-16   2.11119641352492E-15
     -5.99428571276619E-16
      1.20000000000000E-01
      0.00000000000000E+00   0.00000000000000E+00   0.00000000000000E+00   0.00000000000000E+00  -9.76394001367556E-15
     -1.23851220993219E-24  -9.76394001491407E-15   5.73908042054924E-16   2.40000000000000E-01   2.40000000000000E-01
      0.00000000000000E+00   0.00000000000000E+00   8.28863194775493E-15   1.47530806715913E-15   9.76394001491407E-15
     -5.73908042054923E-16
      1.40000000000000E-01
      0.00000000000000E+00   0.00000000000000E+00   0.00000000000000E+00   0.00000000000000E+00  -4.54245990326069E-14
      7.55521912144787E-25  -4.54245990318514E-14   5.47456788074445E-16   2.80000000000000E-01   2.80000000000000E-01
      0.00000000000000E+00   0.00000000000000E+00   3.88166422312545E-14   6.60795680059701E-15   4.54245990318515E-14
     -5.47456788074446E-16
      1.60000000000000E-01
      0.00000000000000E+00   0.00000000000000E+00   0.00000000000000E+00   0.00000000000000E+00  -2.11940323558110E-13
      5.07078633833789E-24  -2.11940323553039E-13   5.20022989579575E-16   3.20000000000000E-01   3.20000000000000E-01
      0.00000000000000E+00   0.00000000000000E+00   1.81741862840412E-13   3.01984607126273E-14   2.11940323553040E-13
     -5.20022989579576E-16
      1.80000000000000E-01
      0.00000000000000E+00   0.00000000000000E+00   0.00000000000000E+00   0.00000000000000E+00  -9.90179150879603E-13
      2.15671728584952E-24  -9.90179150877446E-13   4.91566198437671E-16   3.60000000000000E-01   3.60000000000000E-01
      0.00000000000000E+00   0.00000000000000E+00   8.50760549825117E-13   1.39418601052331E-13   9.90179150877448E-13
     -4.91566198437671E-16
      2.00000000000000E-01
      0.00000000000000E+00   0.00000000000000E+00   0.00000000000000E+00   0.00000000000000E+00  -4.62860025951961E-12
     -2.49621640381231E-23  -4.62860025954457E-12   4.62037754737176E-16   4.00000000000000E-01   4.00000000000000E-01
      0.00000000000000E+00   0.00000000000000E+00   3.98171513136879E-12   6.46885128175785E-13   4.62860025954457E-12
     -4.62037754737177E-16
      2.20000000000000E-01
      0.00000000000000E+00   0.00000000000000E+00   0.00000000000000E+00   0.00000000000000E+00  -2.16393951114697E-11
      3.07389313315333E-23  -2.16393951114390E-11   4.31357545707326E-16   4.40000000000000E-01   4.40000000000000E-01
      0.00000000000000E+00   0.00000000000000E+00   1.86307676741601E-11   3.00862743727890E-12   2.16393951114390E-11
     -4.31357545707325E-16
      2.40000000000000E-01
      0.00000000000000E+00   0.00000000000000E+00   0.00000000000000E+00   0.00000000000000E+00  -1.01158009661900E-10
      2.53830080186981E-22  -1.01158009661646E-10   3.99388486299669E-16   4.80000000000000E-01   4.80000000000000E-01
      0.00000000000000E+00   0.00000000000000E+00   8.71502101844900E-11   1.40077994771560E-11   1.01158009661646E-10
     -3.99388486299669E-16
      2.60000000000000E-01
      0.00000000000000E+00   0.00000000000000E+00   0.00000000000000E+00   0.00000000000000E+00  -4.72762760563695E-10
     -1.25761958359821E-22  -4.72762760563821E-10   3.65908056785227E-16   5.20000000000000E-01   5.20000000000000E-01
      0.00000000000000E+00   0.00000000000000E+00   4.07521171144483E-10   6.52415894193381E-11   4.72762760563821E-10
     -3.65908056785228E-16
      2.80000000000000E-01
      0.00000000000000E+00   0.00000000000000E+00   0.00000000000000E+00   0.00000000000000E+00  -2.20848704660933E-09
      1.19064021736171E-22  -2.20848704660921E-09   3.30582170914280E-16   5.60000000000000E-01   5.60000000000000E-01
      0.00000000000000E+00   0.00000000000000E+00   1.90465589803955E-09   3.03831148569657E-10   2.20848704660921E-09
     -3.30582170914281E-16
      3.00000000000000E-01
      0.00000000000000E+00   0.00000000000000E+00   0.00000000000000E+00   0.00000000000000E+00  -1.03088700485552E-08
      6.39604691530986E-22  -1.03088700485545E-08   2.92964669342565E-16   6.00000000000000E-01   6.00000000000000E-01
      0.00000000000000E+00   0.00000000000000E+00   8.89473852257441E-09   1.41413152598015E-09   1.03088700485546E-08
     -2.92964669342565E-16
      3.20000000000000E-01
      0.00000000000000E+00   0.00000000000000E+00   0.00000000000000E+00   0.00000000000000E+00  -4.80390124486678E-08
      3.25228960203274E-21  -4.80390124486646E-08   2.52576610795182E-16   6.40000000000000E-01   6.40000000000000E-01
      0.00000000000000E+00   0.00000000000000E+00   4.14665361468835E-08   6.57247630178102E-09   4.80390124486645E-08
     -2.52576610795183E-16
      3.40000000000000E-01
      0.00000000000000E+00   0.00000000000000E+00   0.00000000000000E+00   0.00000000000000E+00  -2.22754501877391E-07
      1.44834288858742E-20  -2.22754501877376E-07   2.09168246214272E-16   6.80000000000000E-01   6.80000000000000E-01
      0.00000000000000E+00   0.00000000000000E+00   1.92324550945167E-07   3.04299509322090E-08   2.22754501877376E-07
     -2.09168246214272E-16
      3.60000000000000E-01
      0.00000000000000E+00   0.00000000000000E+00   0.00000000000000E+00   0.00000000000000E+00  -1.01492428224370E-06
      8.24746836221073E-20  -1.01492428224361E-06   1.63388926022722E-16   7.20000000000000E-01   7.20000000000000E-01
      0.00000000000000E+00   0.00000000000000E+00   8.75771324659018E-07   1.39152957584596E-07   1.01492428224361E-06
     -1.63388926022722E-16
      3.80000000000000E-01
      0.00000000000000E+00   0.00000000000000E+00   0.00000000000000E+00   0.00000000000000E+00  -4.35214441138157E-06
      9.74933344186141E-18  -4.35214441137182E-06   1.18120615614601E-16   7.60000000000000E-01   7.60000000000000E-01
      0.00000000000000E+00   0.00000000000000E+00   3.74155711296431E-06   6.10587298407511E-07   4.35214441137182E-06
     -1.18120615614601E-16
      4.00000000000000E-01
      0.00000000000000E+00   0.00000000000000E+00   0.00000000000000E+00   0.00000000000000E+00  -1.59970638362304E-05
     -1.18554605111648E-14  -1.59970638480858E-05   7.90469681853375E-17   8.00000000000000E-01   8.00000000000000E-01
      0.00000000000000E+00   0.00000000000000E+00   1.35973406489350E-05   2.39972319915085E-06   1.59970638480858E-05
     -7.90469681853371E-17
      4.20000000000000E-01
      0.00000000000000E+00   0.00000000000000E+00   0.00000000000000E+00   0.00000000000000E+00  -4.64044386055279E-05
     -4.73899084934873E-19  -4.64044386055283E-05   5.08846066066123E-17   8.40000000000000E-01   8.40000000000000E-01
      0.00000000000000E+00   0.00000000000000E+00   3.86461106137630E-05   7.75832799176535E-06   4.64044386055283E-05
     -5.08846066066124E-17
      4.40000000000000E-01
      0.00000000000000E+00   0.00000000000000E+00   0.00000000000000E+00   0.00000000000000E+00  -1.06368615919705E-04
     -1.50528421634019E-19  -1.06368615919706E-04   3.31628251675438E-17   8.80000000000000E-01   8.80000000000000E-01
      0.00000000000000E+00   0.00000000000000E+00   8.64602218360740E-05   1.99083940836315E-05   1.06368615919705E-04
     -3.31628251675438E-17
      4.60000000000000E-01
      0.00000000000000E+00   0.00000000000000E+00   0.00000000000000E+00   0.00000000000000E+00  -2.02234870392952E-04
      5.92812282639251E-15  -2.02234870387024E-04   2.23534048099801E-17   9.20000000000000E-01   9.20000000000000E-01
      0.00000000000000E+00   0.00000000000000E+00   1.60691491500043E-04   4.15433788869807E-05   2.02234870387024E-04
     -2.23534048099801E-17
      4.80000000000000E-01
      0.00000000000000E+00   0.00000000000000E+00   0.00000000000000E+00   0.00000000000000E+00  -3.34924091291758E-04
      1.87622202677940E-15  -3.34924091289882E-04   1.54257379443423E-17   9.60000000000000E-01   9.60000000000000E-01
      0.00000000000000E+00   0.00000000000000E+00   2.61126408394394E-04   7.37976828954885E-05   3.34924091289882E-04
     -1.54257379443423E-17
      5.00000000000000E-01
      0.00000000000000E+00   0.00000000000000E+00   0.00000000000000E+00   0.00000000000000E+00  -5.01202463704291E-04
      2.07268567280291E-16  -5.01202463704084E-04   1.06289012141320E-17   1.00000000000000E+00   1.00000000000000E+00
      0.00000000000000E+00   0.00000000000000E+00   3.84917202251823E-04   1.16285261452262E-04   5.01202463704085E-04
     -1.06289012141320E-17
      5.20000000000000E-01
      0.00000000000000E+00   0.00000000000000E+00   0.00000000000000E+00   0.00000000000000E+00  -6.95366522184368E-04
     -1.40424989366372E-17  -6.95366522184382E-04   7.05526444498005E-18   1.04000000000000E+00   1.04000000000000E+00
      0.00000000000000E+00   0.00000000000000E+00   5.27757487192504E-04   1.67609034991876E-04   6.95366522184380E-04
     -7.05526444498005E-18
      5.40000000000000E-01
      0.00000000000000E+00   0.00000000000000E+00   0.00000000000000E+00   0.00000000000000E+00  -9.10754663248542E-04
     -7.38042731494349E-18  -9.10754663248549E-04   4.23200700362145E-18   1.08000000000000E+00   1.08000000000000E+00
      0.00000000000000E+00   0.00000000000000E+00   6.84852309550485E-04   2.25902353698066E-04   9.10754663248551E-04
     -4.23200700362140E-18
      5.60000000000000E-01
      0.00000000000000E+00   0.00000000000000E+00   0.00000000000000E+00   0.00000000000000E+00  -1.14093832968794E-03
     -4.78018984792234E-18  -1.14093832968795E-03   1.90066559922742E-18   1.12000000000000E+00   1.12000000000000E+00
      0.00000000000000E+00   0.00000000000000E+00   8.51676152811597E-04   2.89262176876349E-04   1.14093832968795E-03
     -1.90066559922739E-18
      5.80000000000000E-01
      0.00000000000000E+00   0.00000000000000E+00   0.00000000000000E+00   0.00000000000000E+00  -1.38051929263952E-03
     -1.45374399262127E-18  -1.38051929263952E-03  -8.95061710221185E-20   1.16000000000000E+00   1.16000000000000E+00
      0.00000000000000E+00   0.00000000000000E+00   1.02448070205050E-03   3.56038590589021E-04   1.38051929263952E-03
      8.95061710221312E-20
      6.00000000000000E-01
      0.00000000000000E+00   0.00000000000000E+00   0.00000000000000E+00   0.00000000000000E+00  -1.62549420468342E-03
      8.46542644516371E-19  -1.62549420468342E-03  -1.83271597771943E-18   1.20000000000000E+00   1.20000000000000E+00
      0.00000000000000E+00   0.00000000000000E+00   1.20051936026488E-03   4.24974844418542E-04   1.62549420468342E-03
      1.83271597771941E-18
      6.20000000000000E-01
      0.00000000000000E+00   0.00000000000000E+00   0.00000000000000E+00   0.00000000000000E+00  -1.87322843381249E-03
     -1.50904466184758E-18  -1.87322843381249E-03  -3.39160492637282E-18   1.24000000000000E+00   1.24000000000000E+00
      0.00000000000000E+00   0.00000000000000E+00   1.37801115656865E-03   4.95217277243837E-04   1.87322843381249E-03
      3.39160492637277E-18
      6.40000000000000E-01
      0.00000000000000E+00   0.00000000000000E+00   0.00000000000000E+00   0.00000000000000E+00  -2.12217555207313E-03
      7.43064032260098E-18  -2.12217555207313E-03  -4.80977675020209E-18   1.28000000000000E+00   1.28000000000000E+00
      0.00000000000000E+00   0.00000000000000E+00   1.55593478917246E-03   5.66240762900671E-04   2.12217555207313E-03
      4.80977675020213E-18
      6.60000000000000E-01
      0.00000000000000E+00   0.00000000000000E+00   0.00000000000000E+00   0.00000000000000E+00  -2.37151544928431E-03
     -5.53714540829208E-18  -2.37151544928432E-03  -6.11844488948383E-18   1.32000000000000E+00   1.32000000000000E+00
      0.00000000000000E+00   0.00000000000000E+00   1.73377084016657E-03   6.37744609117746E-04   2.37151544928432E-03
      6.11844488948379E-18
      6.80000000000000E-01
      0.00000000000000E+00   0.00000000000000E+00   0.00000000000000E+00   0.00000000000000E+00  -2.62084116001423E-03
     -3.08345428558746E-13  -2.62084116032258E-03  -7.34030837904320E-18   1.36000000000000E+00   1.36000000000000E+00
      0.00000000000000E+00   0.00000000000000E+00   1.91128117554501E-03   7.09559984777572E-04   2.62084116032258E-03
      7.34030837904321E-18
      7.00000000000000E-01
      0.00000000000000E+00   0.00000000000000E+00   0.00000000000000E+00   0.00000000000000E+00  -2.86994690462509E-03
     -1.37478619701799E-13  -2.86994690476257E-03  -8.49205886657094E-18   1.40000000000000E+00   1.40000000000000E+00
      0.00000000000000E+00   0.00000000000000E+00   2.08836085137914E-03   7.81586053383432E-04   2.86994690476257E-03
      8.49205886657087E-18
      7.20000000000000E-01
      0.00000000000000E+00   0.00000000000000E+00   0.00000000000000E+00   0.00000000000000E+00  -3.11871058473961E-03
     -6.49425775927828E-14  -3.11871058480455E-03  -9.58611753712865E-18   1.44000000000000E+00   1.44000000000000E+00
      0.00000000000000E+00   0.00000000000000E+00   2.26495685435298E-03   8.53753730451575E-04   3.11871058480456E-03
      9.58611753712865E-18
      7.40000000000000E-01
      0.00000000000000E+00   0.00000000000000E+00   0.00000000000000E+00   0.00000000000000E+00  -3.36704035739503E-03
     -3.23996547427051E-14  -3.36704035742743E-03  -1.06318672171118E-17   1.48000000000000E+00   1.48000000000000E+00
      0.00000000000000E+00   0.00000000000000E+00   2.44103186264593E-03   9.26008494781516E-04   3.36704035742744E-03
      1.06318672171118E-17
      7.60000000000000E-01
      0.00000000000000E+00   0.00000000000000E+00   0.00000000000000E+00   0.00000000000000E+00  -3.61485595999998E-03
     -1.69971008800338E-14  -3.61485596001698E-03  -1.16365237676386E-17   1.52000000000000E+00   1.52000000000000E+00
      0.00000000000000E+00   0.00000000000000E+00   2.61655224313977E-03   9.98303716877211E-04   3.61485596001698E-03
      1.16365237676387E-17
      7.80000000000000E-01
      0.00000000000000E+00   0.00000000000000E+00   0.00000000000000E+00   0.00000000000000E+00  -3.86208514335730E-03
     -9.31919179948639E-15  -3.86208514336662E-03  -1.26057456370879E-17   1.56000000000000E+00   1.56000000000000E+00
      0.00000000000000E+00   0.00000000000000E+00   2.79148644452340E-03   1.07059869884323E-03   3.86208514336662E-03
      1.26057456370879E-17
      8.00000000000000E-01
      0.00000000000000E+00   0.00000000000000E+00   0.00000000000000E+00   0.00000000000000E+00  -4.10866479372496E-03
     -5.31475885466004E-15  -4.10866479373027E-03  -1.35440567738987E-17   1.60000000000000E+00   1.60000000000000E+00
      0.00000000000000E+00   0.00000000000000E+00   2.96580648857609E-03   1.14285830515418E-03   4.10866479373027E-03
      1.35440567738987E-17
      8.20000000000000E-01
      0.00000000000000E+00   0.00000000000000E+00   0.00000000000000E+00   0.00000000000000E+00  -4.35454232273790E-03
     -3.12238196180244E-15  -4.35454232274103E-03  -1.44551396856284E-17   1.64000000000000E+00   1.64000000000000E+00
      0.00000000000000E+00   0.00000000000000E+00   3.13948949143401E-03   1.21505283130702E-03   4.35454232274103E-03
      1.44551396856284E-17
      8.40000000000000E-01
      0.00000000000000E+00   0.00000000000000E+00   0.00000000000000E+00   0.00000000000000E+00  -4.59967602579081E-03
     -1.89625552371667E-15  -4.59967602579270E-03  -1.53420398686683E-17   1.68000000000000E+00   1.68000000000000E+00
      0.00000000000000E+00   0.00000000000000E+00   3.31251833821015E-03   1.28715768758255E-03   4.59967602579271E-03
      1.53420398686683E-17
      8.60000000000000E-01
      0.00000000000000E+00   0.00000000000000E+00   0.00000000000000E+00   0.00000000000000E+00  -4.84403441982207E-03
     -1.18123025797037E-15  -4.84403441982325E-03  -1.62073103794270E-17   1.72000000000000E+00   1.72000000000000E+00
      0.00000000000000E+00   0.00000000000000E+00   3.48488154810326E-03   1.35915287171999E-03   4.84403441982325E-03
      1.62073103794270E-17
      8.80000000000000E-01
      0.00000000000000E+00   0.00000000000000E+00   0.00000000000000E+00   0.00000000000000E+00  -5.08759495468640E-03
     -7.46657248543746E-16  -5.08759495468714E-03  -1.70531160304628E-17   1.76000000000000E+00   1.76000000000000E+00
      0.00000000000000E+00   0.00000000000000E+00   3.65657262939739E-03   1.43102232528973E-03   5.08759495468713E-03
      1.70531160304627E-17
      9.00000000000000E-01
      0.00000000000000E+00   0.00000000000000E+00   0.00000000000000E+00   0.00000000000000E+00  -5.33034248688804E-03
     -4.86524670124594E-16  -5.33034248688852E-03  -1.78813101508450E-17   1.80000000000000E+00   1.80000000000000E+00
      0.00000000000000E+00   0.00000000000000E+00   3.82758921424838E-03   1.50275327264014E-03   5.33034248688853E-03
      1.78813101508448E-17
      9.20000000000000E-01
      0.00000000000000E+00   0.00000000000000E+00   0.00000000000000E+00   0.00000000000000E+00  -5.57226778258937E-03
     -3.23058546323741E-16  -5.57226778258969E-03  -1.86934924240952E-17   1.84000000000000E+00   1.84000000000000E+00
      0.00000000000000E+00   0.00000000000000E+00   3.99793217323502E-03   1.57433560935467E-03   5.57226778258970E-03
      1.86934924240952E-17
      9.40000000000001E-01
      0.00000000000000E+00   0.00000000000000E+00   0.00000000000000E+00   0.00000000000000E+00  -5.81336619321547E-03
     -2.07599597086280E-16  -5.81336619321568E-03  -1.94910534060693E-17   1.88000000000000E+00   1.88000000000000E+00
      0.00000000000000E+00   0.00000000000000E+00   4.16760481965152E-03   1.64576137356416E-03   5.81336619321568E-03
      1.94910534060694E-17
      9.60000000000001E-01
      0.00000000000000E+00   0.00000000000000E+00   0.00000000000000E+00   0.00000000000000E+00  -6.05363655732388E-03
     -1.45012511682710E-16  -6.05363655732403E-03  -2.02752094425763E-17   1.92000000000000E+00   1.92000000000000E+00
      0.00000000000000E+00   0.00000000000000E+00   4.33661224820704E-03   1.71702430911698E-03   6.05363655732402E-03
      2.02752094425764E-17
      9.80000000000001E-01
      0.00000000000000E+00   0.00000000000000E+00   0.00000000000000E+00   0.00000000000000E+00  -6.29308032876794E-03
     -1.05717183346554E-16  -6.29308032876804E-03  -2.10470304976477E-17   1.96000000000000E+00   1.96000000000000E+00
      0.00000000000000E+00   0.00000000000000E+00   4.50496081340465E-03   1.78811951536340E-03   6.29308032876805E-03
      2.10470304976478E-17
      1.00000000000000E+00
      0.00000000000000E+00   0.00000000000000E+00   0.00000000000000E+00   0.00000000000000E+00  -6.53170090471890E-03
     -7.38454168473392E-17  -6.53170090471898E-03  -2.18074626254281E-17   2.00000000000000E+00   2.00000000000000E+00
      0.00000000000000E+00   0.00000000000000E+00   4.67265773301847E-03   1.85904317170051E-03   6.53170090471898E-03
      2.18074626254281E-17
}
