DF-ISE text

Info {
  version   = 1.0
  type      = xyplot
  datasets  = [
    "time"
    "n OuterVoltage" "n InnerVoltage" "n QuasiFermiPotential" "n DisplacementCurrent" "n eCurrent"
    "n hCurrent" "n TotalCurrent" "n Charge" "p OuterVoltage" "p InnerVoltage"
    "p QuasiFermiPotential" "p DisplacementCurrent" "p eCurrent" "p hCurrent" "p TotalCurrent"
    "p Charge" ]
  functions = [
    Time
    OuterVoltage InnerVoltage QuasiFermiPotential DisplacementCurrent eCurrent
    hCurrent TotalCurrent Charge OuterVoltage InnerVoltage
    QuasiFermiPotential DisplacementCurrent eCurrent hCurrent TotalCurrent
    Charge ]
}

Data {
      0.00000000000000E+00
      0.00000000000000E+00   0.00000000000000E+00   0.00000000000000E+00   0.00000000000000E+00  -6.53170090471869E-03
      4.41343580961344E-18  -6.53170090471868E-03  -2.18074626254273E-17   2.00000000000000E+00   2.00000000000000E+00
      0.00000000000000E+00   0.00000000000000E+00   4.67265773301826E-03   1.85904317170042E-03   6.53170090471868E-03
      2.18074626254273E-17
      2.00000000000000E-02
      0.00000000000000E+00   0.00000000000000E+00   0.00000000000000E+00   0.00000000000000E+00  -5.69292049158406E-03
     -7.91834798464166E-16  -5.69292049158486E-03  -1.90940208276786E-17   1.86000000000000E+00   1.86000000000000E+00
      0.00000000000000E+00   0.00000000000000E+00   4.08285200207641E-03   1.61006848950845E-03   5.69292049158486E-03
      1.90940208276786E-17
      4.00000000000000E-02
      0.00000000000000E+00   0.00000000000000E+00   0.00000000000000E+00   0.00000000000000E+00  -4.84403441987109E-03
     -1.95377653693269E-14  -4.84403441989063E-03  -1.62073103796536E-17   1.72000000000000E+00   1.72000000000000E+00
      0.00000000000000E+00   0.00000000000000E+00   3.48488154815051E-03   1.35915287174013E-03   4.84403441989064E-03
      1.62073103796536E-17
      6.00000000000000E-02
      0.00000000000000E+00   0.00000000000000E+00   0.00000000000000E+00   0.00000000000000E+00  -3.98545970355439E-03
      3.24592808090756E-18  -3.98545970355438E-03  -1.30785179156101E-17   1.58000000000000E+00   1.58000000000000E+00
      0.00000000000000E+00   0.00000000000000E+00   2.87872479829758E-03   1.10673490525680E-03   3.98545970355438E-03
      1.30785179156100E-17
      8.00000000000000E-02
      0.00000000000000E+00   0.00000000000000E+00   0.00000000000000E+00   0.00000000000000E+00  -3.11871058459050E-03
     -5.66146131271283E-18  -3.11871058459051E-03  -9.58611753611324E-18   1.44000000000000E+00   1.44000000000000E+00
      0.00000000000000E+00   0.00000000000000E+00   2.26495685420523E-03   8.53753730385285E-04   3.11871058459052E-03
      9.58611753611328E-18
      1.00000000000000E-01
      0.00000000000000E+00   0.00000000000000E+00   0.00000000000000E+00   0.00000000000000E+00  -2.24682851664143E-03
     -1.72877412892463E-16  -2.24682851664160E-03  -5.47621460820937E-18   1.30000000000000E+00   1.30000000000000E+00
      0.00000000000000E+00   0.00000000000000E+00   1.64488313273380E-03   6.01945383907797E-04   2.24682851664160E-03
      5.47621460820925E-18
      1.20000000000000E-01
      0.00000000000000E+00   0.00000000000000E+00   0.00000000000000E+00   0.00000000000000E+00  -1.38051929269796E-03
     -2.93220342485878E-14  -1.38051929272728E-03  -8.95061716818017E-20   1.16000000000000E+00   1.16000000000000E+00
      0.00000000000000E+00   0.00000000000000E+00   1.02448070210894E-03   3.56038590618342E-04   1.38051929272728E-03
      8.95061716818260E-20
      1.40000000000000E-01
      0.00000000000000E+00   0.00000000000000E+00   0.00000000000000E+00   0.00000000000000E+00  -5.95208398190125E-04
     -1.05878661300695E-18  -5.95208398190126E-04   8.72559179137536E-18   1.02000000000000E+00   1.02000000000000E+00
      0.00000000000000E+00   0.00000000000000E+00   4.54254378583601E-04   1.40954019606524E-04   5.95208398190125E-04
     -8.72559179137543E-18
      1.60000000000000E-01
      0.00000000000000E+00   0.00000000000000E+00   0.00000000000000E+00   0.00000000000000E+00  -1.06368615918195E-04
      1.00382114878716E-15  -1.06368615917191E-04   3.31628251676217E-17   8.80000000000000E-01   8.80000000000000E-01
      0.00000000000000E+00   0.00000000000000E+00   8.64602218345588E-05   1.99083940826322E-05   1.06368615917191E-04
     -3.31628251676218E-17
      1.80000000000000E-01
      0.00000000000000E+00   0.00000000000000E+00   0.00000000000000E+00   0.00000000000000E+00  -2.12783815220618E-06
     -1.18671779867837E-20  -2.12783815220620E-06   1.40383904177697E-16   7.40000000000000E-01   7.40000000000000E-01
      0.00000000000000E+00   0.00000000000000E+00   1.83388415850957E-06   2.93953993696621E-07   2.12783815220619E-06
     -1.40383904177697E-16
      2.00000000000000E-01
      0.00000000000000E+00   0.00000000000000E+00   0.00000000000000E+00   0.00000000000000E+00  -1.03088700486030E-08
      7.69291578942359E-22  -1.03088700486023E-08   2.92964669342564E-16   6.00000000000000E-01   6.00000000000000E-01
      0.00000000000000E+00   0.00000000000000E+00   8.89473852262224E-09   1.41413152598002E-09   1.03088700486023E-08
     -2.92964669342564E-16
      2.20000000000000E-01
      0.00000000000000E+00   0.00000000000000E+00   0.00000000000000E+00   0.00000000000000E+00  -4.67877825819980E-11
      5.67394371908297E-23  -4.67877825819413E-11   4.15545679620605E-16   4.60000000000000E-01   4.60000000000000E-01
      0.00000000000000E+00   0.00000000000000E+00   4.02964360022660E-11   6.49134657967519E-12   4.67877825819412E-11
     -4.15545679620604E-16
      2.40000000000000E-01
      0.00000000000000E+00   0.00000000000000E+00   0.00000000000000E+00   0.00000000000000E+00  -2.11940322396518E-13
     -3.15494509956006E-24  -2.11940322399673E-13   5.20022989579575E-16   3.20000000000000E-01   3.20000000000000E-01
      0.00000000000000E+00   0.00000000000000E+00   1.81741861678819E-13   3.01984607208532E-14   2.11940322399673E-13
     -5.20022989579576E-16
      2.60000000000000E-01
      0.00000000000000E+00   0.00000000000000E+00   0.00000000000000E+00   0.00000000000000E+00  -9.85420180515923E-16
     -3.60904112044981E-25  -9.85420180876827E-16   6.11861976720331E-16   1.80000000000000E-01   1.80000000000000E-01
      0.00000000000000E+00   0.00000000000000E+00   8.17011644374043E-16   1.68408536502782E-16   9.85420180876826E-16
     -6.11861976720333E-16
      2.80000000000000E-01
      0.00000000000000E+00   0.00000000000000E+00   0.00000000000000E+00   0.00000000000000E+00  -4.68386446752638E-18
      3.76530037189728E-28  -4.68386446714985E-18   6.93894969397038E-16   4.00000000000003E-02   4.00000000000003E-02
      0.00000000000000E+00   0.00000000000000E+00   2.88993099528491E-18   1.79393347186493E-18   4.68386446714984E-18
     -6.93894969397039E-16
      3.00000000000000E-01
      0.00000000000000E+00   0.00000000000000E+00   0.00000000000000E+00   0.00000000000000E+00   2.35330912736262E-18
      3.77618345143368E-24   2.35331290354608E-18   7.69804261400778E-16  -1.00000000000000E-01  -1.00000000000000E-01
      0.00000000000000E+00   0.00000000000000E+00  -7.69027930325376E-19  -1.58428497322070E-18  -2.35331290354607E-18
     -7.69804261400778E-16
      3.20000000000000E-01
      0.00000000000000E+00   0.00000000000000E+00   0.00000000000000E+00   0.00000000000000E+00   3.47011933649557E-18
      1.25236622403929E-25   3.47011946173219E-18   8.41838203199834E-16  -2.40000000000000E-01  -2.40000000000000E-01
      0.00000000000000E+00   0.00000000000000E+00  -7.95208394909097E-19  -2.67491106682310E-18  -3.47011946173220E-18
     -8.41838203199833E-16
      3.40000000000000E-01
      0.00000000000000E+00   0.00000000000000E+00   0.00000000000000E+00   0.00000000000000E+00   4.38610243019429E-18
      6.76103867463416E-26   4.38610249780467E-18   9.10962249757669E-16  -3.80000000000000E-01  -3.80000000000000E-01
      0.00000000000000E+00   0.00000000000000E+00  -8.00696813398085E-19  -3.58540568440660E-18  -4.38610249780468E-18
     -9.10962249757670E-16
      3.60000000000000E-01
      0.00000000000000E+00   0.00000000000000E+00   0.00000000000000E+00   0.00000000000000E+00   5.43089324514556E-18
      2.25278141180986E-26   5.43089326767337E-18   9.77571230512668E-16  -5.20000000000000E-01  -5.20000000000000E-01
      0.00000000000000E+00   0.00000000000000E+00  -8.05677402410747E-19  -4.62521586526262E-18  -5.43089326767336E-18
     -9.77571230512670E-16
      3.80000000000000E-01
      0.00000000000000E+00   0.00000000000000E+00   0.00000000000000E+00   0.00000000000000E+00   6.58662238739766E-18
      7.55920683728493E-26   6.58662246298972E-18   1.04180727651455E-15  -6.60000000000001E-01  -6.60000000000001E-01
      0.00000000000000E+00   0.00000000000000E+00  -8.10177929262482E-19  -5.77644453372721E-18  -6.58662246298969E-18
     -1.04180727651455E-15
      4.00000000000000E-01
      0.00000000000000E+00   0.00000000000000E+00   0.00000000000000E+00   0.00000000000000E+00   7.58570104026258E-18
      3.05178284621193E-26   7.58570107078041E-18   1.10371996283651E-15  -8.00000000000001E-01  -8.00000000000001E-01
      0.00000000000000E+00   0.00000000000000E+00  -8.14939330880813E-19  -6.77076173989960E-18  -7.58570107078041E-18
     -1.10371996283651E-15
      4.20000000000000E-01
      0.00000000000000E+00   0.00000000000000E+00   0.00000000000000E+00   0.00000000000000E+00   8.42771235922836E-18
     -1.59550466776605E-26   8.42771234327331E-18   1.16342774859869E-15  -9.40000000000001E-01  -9.40000000000001E-01
      0.00000000000000E+00   0.00000000000000E+00  -8.20266883016602E-19  -7.60744546025672E-18  -8.42771234327332E-18
     -1.16342774859869E-15
      4.40000000000000E-01
      0.00000000000000E+00   0.00000000000000E+00   0.00000000000000E+00   0.00000000000000E+00   9.12754954591708E-18
      1.32631690124698E-26   9.12754955918025E-18   1.22120357233309E-15  -1.08000000000000E+00  -1.08000000000000E+00
      0.00000000000000E+00   0.00000000000000E+00  -8.24747553425587E-19  -8.30280200575467E-18  -9.12754955918025E-18
     -1.22120357233309E-15
      4.60000000000000E-01
      0.00000000000000E+00   0.00000000000000E+00   0.00000000000000E+00   0.00000000000000E+00   9.68511959378558E-18
     -4.00340605013156E-27   9.68511958978217E-18   1.27737764663496E-15  -1.22000000000000E+00  -1.22000000000000E+00
      0.00000000000000E+00   0.00000000000000E+00  -8.28951233249827E-19  -8.85616835653237E-18  -9.68511958978219E-18
     -1.27737764663496E-15
      4.80000000000000E-01
      0.00000000000000E+00   0.00000000000000E+00   0.00000000000000E+00   0.00000000000000E+00   1.01965918090689E-17
     -6.01558547531853E-27   1.01965918030533E-17   1.33221822541648E-15  -1.36000000000000E+00  -1.36000000000000E+00
      0.00000000000000E+00   0.00000000000000E+00  -8.32991437144871E-19  -9.36360036590838E-18  -1.01965918030533E-17
     -1.33221822541648E-15
      5.00000000000000E-01
      0.00000000000000E+00   0.00000000000000E+00   0.00000000000000E+00   0.00000000000000E+00   1.06419613013468E-17
     -3.85708138121826E-27   1.06419612974898E-17   1.38590874372896E-15  -1.50000000000000E+00  -1.50000000000000E+00
      0.00000000000000E+00   0.00000000000000E+00  -8.36914291613257E-19  -9.80504700587648E-18  -1.06419612974897E-17
     -1.38590874372896E-15
      5.20000000000000E-01
      0.00000000000000E+00   0.00000000000000E+00   0.00000000000000E+00   0.00000000000000E+00   1.10453940865030E-17
     -4.29690586055207E-27   1.10453940822061E-17   1.43857039905676E-15  -1.64000000000000E+00  -1.64000000000000E+00
      0.00000000000000E+00   0.00000000000000E+00  -8.40736451607991E-19  -1.02046576305981E-17  -1.10453940822061E-17
     -1.43857039905676E-15
      5.40000000000000E-01
      0.00000000000000E+00   0.00000000000000E+00   0.00000000000000E+00   0.00000000000000E+00   1.15808935788845E-17
     -1.74546156022099E-26   1.15808935614299E-17   1.49028465474200E-15  -1.78000000000000E+00  -1.78000000000000E+00
      0.00000000000000E+00   0.00000000000000E+00  -8.44461213369653E-19  -1.07364323480603E-17  -1.15808935614299E-17
     -1.49028465474200E-15
      5.60000000000000E-01
      0.00000000000000E+00   0.00000000000000E+00   0.00000000000000E+00   0.00000000000000E+00   1.23300985837943E-17
      3.96171479719997E-27   1.23300985877560E-17   1.54110806300902E-15  -1.92000000000000E+00  -1.92000000000000E+00
      0.00000000000000E+00   0.00000000000000E+00  -8.48085102146676E-19  -1.14820134856094E-17  -1.23300985877561E-17
     -1.54110806300903E-15
      5.80000000000000E-01
      0.00000000000000E+00   0.00000000000000E+00   0.00000000000000E+00   0.00000000000000E+00   1.31954003800549E-17
      2.17505407778331E-27   1.31954003822300E-17   1.59108070489836E-15  -2.06000000000000E+00  -2.06000000000000E+00
      0.00000000000000E+00   0.00000000000000E+00  -8.51601123486001E-19  -1.23437992587440E-17  -1.31954003822300E-17
     -1.59108070489836E-15
      6.00000000000000E-01
      0.00000000000000E+00   0.00000000000000E+00   0.00000000000000E+00   0.00000000000000E+00   1.40560268902301E-17
     -5.23431819003493E-27   1.40560268849958E-17   1.64022961707308E-15  -2.20000000000000E+00  -2.20000000000000E+00
      0.00000000000000E+00   0.00000000000000E+00  -8.55009682896302E-19  -1.32010172020995E-17  -1.40560268849958E-17
     -1.64022961707308E-15
      6.20000000000000E-01
      0.00000000000000E+00   0.00000000000000E+00   0.00000000000000E+00   0.00000000000000E+00   1.48365357397181E-17
     -4.62955990600730E-27   1.48365357350885E-17   1.68857369700395E-15  -2.34000000000000E+00  -2.34000000000000E+00
      0.00000000000000E+00   0.00000000000000E+00  -8.58318255247622E-19  -1.39782174798409E-17  -1.48365357350886E-17
     -1.68857369700395E-15
      6.40000000000000E-01
      0.00000000000000E+00   0.00000000000000E+00   0.00000000000000E+00   0.00000000000000E+00   1.55336875359716E-17
      1.10300065171368E-27   1.55336875370746E-17   1.73613524034114E-15  -2.48000000000000E+00  -2.48000000000000E+00
      0.00000000000000E+00   0.00000000000000E+00  -8.61535915579556E-19  -1.46721516214951E-17  -1.55336875370746E-17
     -1.73613524034113E-15
      6.60000000000000E-01
      0.00000000000000E+00   0.00000000000000E+00   0.00000000000000E+00   0.00000000000000E+00   1.61709968478430E-17
      1.62180042498168E-27   1.61709968494648E-17   1.78295192965585E-15  -2.62000000000000E+00  -2.62000000000000E+00
      0.00000000000000E+00   0.00000000000000E+00  -8.64669764142183E-19  -1.53063270853227E-17  -1.61709968494649E-17
     -1.78295192965586E-15
      6.80000000000000E-01
      0.00000000000000E+00   0.00000000000000E+00   0.00000000000000E+00   0.00000000000000E+00   1.67130392410807E-17
     -1.33217885872272E-27   1.67130392397485E-17   1.82907867795898E-15  -2.76000000000000E+00  -2.76000000000000E+00
      0.00000000000000E+00   0.00000000000000E+00  -8.67726343257141E-19  -1.58453128964914E-17  -1.67130392397485E-17
     -1.82907867795898E-15
      7.00000000000000E-01
      0.00000000000000E+00   0.00000000000000E+00   0.00000000000000E+00   0.00000000000000E+00   1.71589110414654E-17
      1.38098286103732E-27   1.71589110428464E-17   1.87457831159282E-15  -2.90000000000000E+00  -2.90000000000000E+00
      0.00000000000000E+00   0.00000000000000E+00  -8.70712316061531E-19  -1.62881987267848E-17  -1.71589110428464E-17
     -1.87457831159282E-15
      7.20000000000000E-01
      0.00000000000000E+00   0.00000000000000E+00   0.00000000000000E+00   0.00000000000000E+00   1.75124622285525E-17
     -3.53125211181118E-27   1.75124622250213E-17   1.91950988816418E-15  -3.04000000000000E+00  -3.04000000000000E+00
      0.00000000000000E+00   0.00000000000000E+00  -8.73638020514311E-19  -1.66388242045070E-17  -1.75124622250213E-17
     -1.91950988816418E-15
      7.40000000000000E-01
      0.00000000000000E+00   0.00000000000000E+00   0.00000000000000E+00   0.00000000000000E+00   1.78512725213882E-17
      1.54358032832616E-27   1.78512725229318E-17   1.96392206415611E-15  -3.18000000000000E+00  -3.18000000000000E+00
      0.00000000000000E+00   0.00000000000000E+00  -8.76516253859181E-19  -1.69747562690726E-17  -1.78512725229318E-17
     -1.96392206415611E-15
      7.60000000000000E-01
      0.00000000000000E+00   0.00000000000000E+00   0.00000000000000E+00   0.00000000000000E+00   1.82680712020302E-17
     -6.50227370146548E-28   1.82680712013800E-17   2.00785201174981E-15  -3.32000000000000E+00  -3.32000000000000E+00
      0.00000000000000E+00   0.00000000000000E+00  -8.79359741225941E-19  -1.73887114601540E-17  -1.82680712013800E-17
     -2.00785201174981E-15
      7.80000000000000E-01
      0.00000000000000E+00   0.00000000000000E+00   0.00000000000000E+00   0.00000000000000E+00   1.87120837302147E-17
      2.06439228264806E-27   1.87120837322791E-17   2.05132701596279E-15  -3.46000000000000E+00  -3.46000000000000E+00
      0.00000000000000E+00   0.00000000000000E+00  -8.82178470645141E-19  -1.78299052616340E-17  -1.87120837322791E-17
     -2.05132701596279E-15
      8.00000000000000E-01
      0.00000000000000E+00   0.00000000000000E+00   0.00000000000000E+00   0.00000000000000E+00   1.91338677733846E-17
      1.28413082541091E-27   1.91338677746688E-17   2.09436662286104E-15  -3.60000000000000E+00  -3.60000000000000E+00
      0.00000000000000E+00   0.00000000000000E+00  -8.84977807906336E-19  -1.82488899667625E-17  -1.91338677746688E-17
     -2.09436662286104E-15
      8.20000000000000E-01
      0.00000000000000E+00   0.00000000000000E+00   0.00000000000000E+00   0.00000000000000E+00   1.95959263118482E-17
     -8.83942352291065E-28   1.95959263109643E-17   2.13698476234594E-15  -3.74000000000000E+00  -3.74000000000000E+00
      0.00000000000000E+00   0.00000000000000E+00  -8.87757703490317E-19  -1.87081686074740E-17  -1.95959263109643E-17
     -2.13698476234594E-15
      8.40000000000000E-01
      0.00000000000000E+00   0.00000000000000E+00   0.00000000000000E+00   0.00000000000000E+00   2.02006303739278E-17
     -2.55299777289030E-30   2.02006303739252E-17   2.17919190927015E-15  -3.88000000000000E+00  -3.88000000000000E+00
      0.00000000000000E+00   0.00000000000000E+00  -8.90513122752634E-19  -1.93101172511726E-17  -2.02006303739252E-17
     -2.17919190927015E-15
      8.60000000000000E-01
      0.00000000000000E+00   0.00000000000000E+00   0.00000000000000E+00   0.00000000000000E+00   2.09297825325303E-17
      1.00272612413549E-28   2.09297825326306E-17   2.22099705768096E-15  -4.02000000000000E+00  -4.02000000000000E+00
      0.00000000000000E+00   0.00000000000000E+00  -8.93235976038030E-19  -2.00365465565925E-17  -2.09297825326305E-17
     -2.22099705768096E-15
      8.80000000000000E-01
      0.00000000000000E+00   0.00000000000000E+00   0.00000000000000E+00   0.00000000000000E+00   2.16688205580735E-17
     -3.77817505639441E-28   2.16688205576956E-17   2.26240893945925E-15  -4.16000000000000E+00  -4.16000000000000E+00
      0.00000000000000E+00   0.00000000000000E+00  -8.95917868435182E-19  -2.07729026892605E-17  -2.16688205576957E-17
     -2.26240893945925E-15
      9.00000000000000E-01
      0.00000000000000E+00   0.00000000000000E+00   0.00000000000000E+00   0.00000000000000E+00   2.23292922008547E-17
      2.96328106627571E-28   2.23292922011510E-17   2.30343636173069E-15  -4.30000000000000E+00  -4.30000000000000E+00
      0.00000000000000E+00   0.00000000000000E+00  -8.98552671454319E-19  -2.14307395296968E-17  -2.23292922011511E-17
     -2.30343636173069E-15
      9.20000000000000E-01
      0.00000000000000E+00   0.00000000000000E+00   0.00000000000000E+00   0.00000000000000E+00   2.28831581294319E-17
     -4.03359774371642E-28   2.28831581290285E-17   2.34408835173947E-15  -4.44000000000000E+00  -4.44000000000000E+00
      0.00000000000000E+00   0.00000000000000E+00  -9.01137371181474E-19  -2.19820207578471E-17  -2.28831581290285E-17
     -2.34408835173947E-15
      9.40000000000001E-01
      0.00000000000000E+00   0.00000000000000E+00   0.00000000000000E+00   0.00000000000000E+00   2.33810727573946E-17
      2.33696501630864E-28   2.33810727576283E-17   2.38437482784528E-15  -4.58000000000000E+00  -4.58000000000000E+00
      0.00000000000000E+00   0.00000000000000E+00  -9.03671510096163E-19  -2.24774012475321E-17  -2.33810727576283E-17
     -2.38437482784528E-15
      9.60000000000001E-01
      0.00000000000000E+00   0.00000000000000E+00   0.00000000000000E+00   0.00000000000000E+00   2.38806059610247E-17
      2.99773559336603E-28   2.38806059613245E-17   2.42430765716723E-15  -4.72000000000000E+00  -4.72000000000000E+00
      0.00000000000000E+00   0.00000000000000E+00  -9.06156393870195E-19  -2.29744495674543E-17  -2.38806059613245E-17
     -2.42430765716723E-15
      9.80000000000001E-01
      0.00000000000000E+00   0.00000000000000E+00   0.00000000000000E+00   0.00000000000000E+00   2.43852005507394E-17
     -7.58036610453551E-29   2.43852005506636E-17   2.46390125833617E-15  -4.86000000000000E+00  -4.86000000000000E+00
      0.00000000000000E+00   0.00000000000000E+00  -9.08594581908480E-19  -2.34766059687551E-17  -2.43852005506636E-17
     -2.46390125833617E-15
      1.00000000000000E+00
      0.00000000000000E+00   0.00000000000000E+00   0.00000000000000E+00   0.00000000000000E+00   2.48908358194089E-17
     -3.42634062327498E-28   2.48908358190663E-17   2.50317208759216E-15  -5.00000000000000E+00  -5.00000000000000E+00
      0.00000000000000E+00   0.00000000000000E+00  -9.10990097423930E-19  -2.39798457216423E-17  -2.48908358190662E-17
     -2.50317208759216E-15
      1.00000000000000E-03
      0.00000000000000E+00   0.00000000000000E+00   0.00000000000000E+00   0.00000000000000E+00   2.49087689827060E-17
      8.44024139454663E-34   2.49087689827060E-17   2.50456886251324E-15  -5.00500000000000E+00  -5.00500000000000E+00
      0.00000000000000E+00   0.00000000000000E+00  -9.11074935011041E-19  -2.39976940476949E-17  -2.49087689827060E-17
     -2.50456886251325E-15
      2.00000000000000E-03
      0.00000000000000E+00   0.00000000000000E+00   0.00000000000000E+00   0.00000000000000E+00   2.49266790371335E-17
     -8.27774395747810E-30   2.49266790371253E-17   2.50596524830251E-15  -5.01000000000000E+00  -5.01000000000000E+00
      0.00000000000000E+00   0.00000000000000E+00  -9.11159722306024E-19  -2.40155193148193E-17  -2.49266790371253E-17
     -2.50596524830251E-15
      3.00000000000000E-03
      0.00000000000000E+00   0.00000000000000E+00   0.00000000000000E+00   0.00000000000000E+00   2.49445642432342E-17
     -8.30414761021311E-30   2.49445642432259E-17   2.50736124571680E-15  -5.01500000000000E+00  -5.01500000000000E+00
      0.00000000000000E+00   0.00000000000000E+00  -9.11244463158830E-19  -2.40333197800671E-17  -2.49445642432259E-17
     -2.50736124571681E-15
      4.00000000000000E-03
      0.00000000000000E+00   0.00000000000000E+00   0.00000000000000E+00   0.00000000000000E+00   2.49624228615208E-17
     -8.32623840961727E-30   2.49624228615125E-17   2.50875685551675E-15  -5.02000000000000E+00  -5.02000000000000E+00
      0.00000000000000E+00   0.00000000000000E+00  -9.11329157883560E-19  -2.40510937036290E-17  -2.49624228615125E-17
     -2.50875685551675E-15
      5.00000000000000E-03
      0.00000000000000E+00   0.00000000000000E+00   0.00000000000000E+00   0.00000000000000E+00   2.49802531625264E-17
     -8.34995910293692E-30   2.49802531625180E-17   2.51015207845848E-15  -5.02500000000000E+00  -5.02500000000000E+00
      0.00000000000000E+00   0.00000000000000E+00  -9.11413806801745E-19  -2.40688393557163E-17  -2.49802531625180E-17
     -2.51015207845848E-15
      6.00000000000000E-03
      0.00000000000000E+00   0.00000000000000E+00   0.00000000000000E+00   0.00000000000000E+00   2.49980534335023E-17
     -8.37162081744337E-30   2.49980534334939E-17   2.51154691529556E-15  -5.03000000000000E+00  -5.03000000000000E+00
      0.00000000000000E+00   0.00000000000000E+00  -9.11498410237452E-19  -2.40865550232565E-17  -2.49980534334939E-17
     -2.51154691529556E-15
      7.00000000000000E-03
      0.00000000000000E+00   0.00000000000000E+00   0.00000000000000E+00   0.00000000000000E+00   2.50158219847482E-17
     -8.39413913000569E-30   2.50158219847398E-17   2.51294136677894E-15  -5.03500000000000E+00  -5.03500000000000E+00
      0.00000000000000E+00   0.00000000000000E+00  -9.11582968518241E-19  -2.41042390162216E-17  -2.50158219847398E-17
     -2.51294136677894E-15
      8.00000000000000E-03
      0.00000000000000E+00   0.00000000000000E+00   0.00000000000000E+00   0.00000000000000E+00   2.50335571556008E-17
     -8.41491438340478E-30   2.50335571555923E-17   2.51433543365682E-15  -5.04000000000000E+00  -5.04000000000000E+00
      0.00000000000000E+00   0.00000000000000E+00  -9.11667481974019E-19  -2.41218896736183E-17  -2.50335571555924E-17
     -2.51433543365682E-15
      9.00000000000000E-03
      0.00000000000000E+00   0.00000000000000E+00   0.00000000000000E+00   0.00000000000000E+00   2.50512573200380E-17
     -8.43439609515253E-30   2.50512573200296E-17   2.51572911667461E-15  -5.04500000000000E+00  -5.04500000000000E+00
      0.00000000000000E+00   0.00000000000000E+00  -9.11751950937191E-19  -2.41395053690924E-17  -2.50512573200296E-17
     -2.51572911667461E-15
      1.00000000000000E-02
      0.00000000000000E+00   0.00000000000000E+00   0.00000000000000E+00   0.00000000000000E+00   2.50689208918584E-17
     -8.45428174396515E-30   2.50689208918500E-17   2.51712241657480E-15  -5.05000000000000E+00  -5.05000000000000E+00
      0.00000000000000E+00   0.00000000000000E+00  -9.11836375742729E-19  -2.41570845161072E-17  -2.50689208918500E-17
     -2.51712241657479E-15
      1.10000000000000E-02
      0.00000000000000E+00   0.00000000000000E+00   0.00000000000000E+00   0.00000000000000E+00   2.50865463293978E-17
     -8.47011073299392E-30   2.50865463293893E-17   2.51851533409688E-15  -5.05500000000000E+00  -5.05500000000000E+00
      0.00000000000000E+00   0.00000000000000E+00  -9.11920756728907E-19  -2.41746255726603E-17  -2.50865463293892E-17
     -2.51851533409688E-15
      1.20000000000000E-02
      0.00000000000000E+00   0.00000000000000E+00   0.00000000000000E+00   0.00000000000000E+00   2.51041321397528E-17
     -8.48712009842628E-30   2.51041321397443E-17   2.51990786997730E-15  -5.06000000000000E+00  -5.06000000000000E+00
      0.00000000000000E+00   0.00000000000000E+00  -9.12005094235461E-19  -2.41921270455089E-17  -2.51041321397443E-17
     -2.51990786997729E-15
      1.30000000000000E-02
      0.00000000000000E+00   0.00000000000000E+00   0.00000000000000E+00   0.00000000000000E+00   2.51216768824931E-17
     -8.50344261367440E-30   2.51216768824846E-17   2.52130002494933E-15  -5.06500000000000E+00  -5.06500000000000E+00
      0.00000000000000E+00   0.00000000000000E+00  -9.12089388605255E-19  -2.42095874938794E-17  -2.51216768824846E-17
     -2.52130002494933E-15
      1.40000000000000E-02
      0.00000000000000E+00   0.00000000000000E+00   0.00000000000000E+00   0.00000000000000E+00   2.51391791728355E-17
     -8.51794348278168E-30   2.51391791728270E-17   2.52269179974302E-15  -5.07000000000000E+00  -5.07000000000000E+00
      0.00000000000000E+00   0.00000000000000E+00  -9.12173640183720E-19  -2.42270055326433E-17  -2.51391791728271E-17
     -2.52269179974303E-15
      1.50000000000000E-02
      0.00000000000000E+00   0.00000000000000E+00   0.00000000000000E+00   0.00000000000000E+00   2.51566376842748E-17
     -8.53288601070308E-30   2.51566376842663E-17   2.52408319508514E-15  -5.07500000000000E+00  -5.07500000000000E+00
      0.00000000000000E+00   0.00000000000000E+00  -9.12257849318535E-19  -2.42443798349478E-17  -2.51566376842663E-17
     -2.52408319508514E-15
      1.60000000000000E-02
      0.00000000000000E+00   0.00000000000000E+00   0.00000000000000E+00   0.00000000000000E+00   2.51740511506608E-17
     -8.54690749924698E-30   2.51740511506522E-17   2.52547421169902E-15  -5.08000000000000E+00  -5.08000000000000E+00
      0.00000000000000E+00   0.00000000000000E+00  -9.12342016359330E-19  -2.42617091342930E-17  -2.51740511506523E-17
     -2.52547421169902E-15
      1.70000000000000E-02
      0.00000000000000E+00   0.00000000000000E+00   0.00000000000000E+00   0.00000000000000E+00   2.51914183677247E-17
     -8.56043546157154E-30   2.51914183677162E-17   2.52686485030457E-15  -5.08500000000000E+00  -5.08500000000000E+00
      0.00000000000000E+00   0.00000000000000E+00  -9.12426141658799E-19  -2.42789922260574E-17  -2.51914183677161E-17
     -2.52686485030457E-15
      1.80000000000000E-02
      0.00000000000000E+00   0.00000000000000E+00   0.00000000000000E+00   0.00000000000000E+00   2.52087381940553E-17
     -8.57262744527685E-30   2.52087381940467E-17   2.52825511161816E-15  -5.09000000000000E+00  -5.09000000000000E+00
      0.00000000000000E+00   0.00000000000000E+00  -9.12510225571412E-19  -2.42962279684753E-17  -2.52087381940467E-17
     -2.52825511161817E-15
      1.90000000000000E-02
      0.00000000000000E+00   0.00000000000000E+00   0.00000000000000E+00   0.00000000000000E+00   2.52260095515381E-17
     -8.58536482260672E-30   2.52260095515295E-17   2.52964499635258E-15  -5.09500000000000E+00  -5.09500000000000E+00
      0.00000000000000E+00   0.00000000000000E+00  -9.12594268453759E-19  -2.43134152830757E-17  -2.52260095515295E-17
     -2.52964499635258E-15
      2.00000000000000E-02
      0.00000000000000E+00   0.00000000000000E+00   0.00000000000000E+00   0.00000000000000E+00   2.52432314252732E-17
     -8.59805819122913E-30   2.52432314252646E-17   2.53103450521692E-15  -5.10000000000000E+00  -5.10000000000000E+00
      0.00000000000000E+00   0.00000000000000E+00  -9.12678270665227E-19  -2.43305531545993E-17  -2.52432314252645E-17
     -2.53103450521693E-15
      2.10000000000000E-02
      0.00000000000000E+00   0.00000000000000E+00   0.00000000000000E+00   0.00000000000000E+00   2.52604028629864E-17