DF-ISE text

Info {
  version   = 1.0
  type      = xyplot
  datasets  = [
    "time"
    "n1contact OuterVoltage" "n1contact InnerVoltage" "n1contact QuasiFermiPotential" "n1contact DisplacementCurrent" "n1contact eCurrent"
    "n1contact hCurrent" "n1contact TotalCurrent" "n1contact Charge" "n2contact OuterVoltage" "n2contact InnerVoltage"
    "n2contact QuasiFermiPotential" "n2contact DisplacementCurrent" "n2contact eCurrent" "n2contact hCurrent" "n2contact TotalCurrent"
    "n2contact Charge" ]
  functions = [
    Time
    OuterVoltage InnerVoltage QuasiFermiPotential DisplacementCurrent eCurrent
    hCurrent TotalCurrent Charge OuterVoltage InnerVoltage
    QuasiFermiPotential DisplacementCurrent eCurrent hCurrent TotalCurrent
    Charge ]
}

Data {
      0.00000000000000E+00
      0.00000000000000E+00   0.00000000000000E+00   0.00000000000000E+00   0.00000000000000E+00   5.80100509815475E-35
     -5.80100509815475E-35   0.00000000000000E+00   0.00000000000000E+00   0.00000000000000E+00   0.00000000000000E+00
      0.00000000000000E+00   0.00000000000000E+00   5.44674524483233E-35  -5.44674524483233E-35   0.00000000000000E+00
      0.00000000000000E+00
      0.00000000000000E+00
      0.00000000000000E+00   0.00000000000000E+00   0.00000000000000E+00   0.00000000000000E+00   5.80100509815475E-35
     -5.80100509815475E-35   0.00000000000000E+00   0.00000000000000E+00   0.00000000000000E+00   0.00000000000000E+00
      0.00000000000000E+00   0.00000000000000E+00   5.44674524483233E-35  -5.44674524483233E-35   0.00000000000000E+00
      0.00000000000000E+00
      0.00000000000000E+00
      0.00000000000000E+00   0.00000000000000E+00   0.00000000000000E+00   0.00000000000000E+00   5.80100509815475E-35
     -5.80100509815475E-35   0.00000000000000E+00   0.00000000000000E+00   0.00000000000000E+00   0.00000000000000E+00
      0.00000000000000E+00   0.00000000000000E+00   5.44674524483233E-35  -5.44674524483233E-35   0.00000000000000E+00
      0.00000000000000E+00
      1.00000000000000E-01
      0.00000000000000E+00   0.00000000000000E+00   0.00000000000000E+00   0.00000000000000E+00  -1.36218363840079E-07
     -6.45644606824499E-20  -1.36218363840144E-07  -6.21564839999413E-20   1.00000000000000E-03   1.00000000000000E-03
      0.00000000000000E+00   0.00000000000000E+00   1.36218363840079E-07   6.45644606824499E-20   1.36218363840144E-07
      6.21564839999413E-20
      2.00000000000000E-01
      0.00000000000000E+00   0.00000000000000E+00   0.00000000000000E+00   0.00000000000000E+00  -2.72436727680333E-07
     -1.29128921364959E-19  -2.72436727680462E-07  -1.24312967999974E-19   2.00000000000000E-03   2.00000000000000E-03
      0.00000000000000E+00   0.00000000000000E+00   2.72436727680333E-07   1.29128921364958E-19   2.72436727680462E-07
      1.24312967999974E-19
      3.00000000000000E-01
      0.00000000000000E+00   0.00000000000000E+00   0.00000000000000E+00   0.00000000000000E+00  -4.08655091520607E-07
     -1.93693382047514E-19  -4.08655091520800E-07  -1.86469452000006E-19   3.00000000000000E-03   3.00000000000000E-03
      0.00000000000000E+00   0.00000000000000E+00   4.08655091520607E-07   1.93693382047514E-19   4.08655091520800E-07
      1.86469452000006E-19
      4.00000000000000E-01
      0.00000000000000E+00   0.00000000000000E+00   0.00000000000000E+00   0.00000000000000E+00  -5.44873455360861E-07
     -2.58257842730058E-19  -5.44873455361119E-07  -2.48625936000039E-19   4.00000000000000E-03   4.00000000000000E-03
      0.00000000000000E+00   0.00000000000000E+00   5.44873455360861E-07   2.58257842730058E-19   5.44873455361119E-07
      2.48625936000039E-19
      5.00000000000000E-01
      0.00000000000000E+00   0.00000000000000E+00   0.00000000000000E+00   0.00000000000000E+00  -6.81091819201134E-07
     -3.22822303412578E-19  -6.81091819201457E-07  -3.10782420000072E-19   5.00000000000000E-03   5.00000000000000E-03
      0.00000000000000E+00   0.00000000000000E+00   6.81091819201134E-07   3.22822303412578E-19   6.81091819201457E-07
      3.10782420000072E-19
      6.00000000000000E-01
      0.00000000000000E+00   0.00000000000000E+00   0.00000000000000E+00   0.00000000000000E+00  -8.17310183040960E-07
     -3.87386764094922E-19  -8.17310183041348E-07  -3.72938903999922E-19   6.00000000000000E-03   6.00000000000000E-03
      0.00000000000000E+00   0.00000000000000E+00   8.17310183040960E-07   3.87386764094922E-19   8.17310183041348E-07
      3.72938903999922E-19
      7.00000000000000E-01
      0.00000000000000E+00   0.00000000000000E+00   0.00000000000000E+00   0.00000000000000E+00  -9.53528546881428E-07
     -4.51951224777537E-19  -9.53528546881880E-07  -4.35095388000045E-19   7.00000000000000E-03   7.00000000000000E-03
      0.00000000000000E+00   0.00000000000000E+00   9.53528546881428E-07   4.51951224777537E-19   9.53528546881880E-07
      4.35095388000046E-19
      8.00000000000000E-01
      0.00000000000000E+00   0.00000000000000E+00   0.00000000000000E+00   0.00000000000000E+00  -1.08974691072174E-06
     -5.16515685460092E-19  -1.08974691072226E-06  -4.97251872000079E-19   8.00000000000000E-03   8.00000000000000E-03
      0.00000000000000E+00   0.00000000000000E+00   1.08974691072174E-06   5.16515685460092E-19   1.08974691072226E-06
      4.97251872000078E-19
      9.00000000000000E-01
      0.00000000000000E+00   0.00000000000000E+00   0.00000000000000E+00   0.00000000000000E+00  -1.22596527456180E-06
     -5.81080146142530E-19  -1.22596527456238E-06  -5.59408356000019E-19   9.00000000000000E-03   9.00000000000000E-03
      0.00000000000000E+00   0.00000000000000E+00   1.22596527456180E-06   5.81080146142530E-19   1.22596527456238E-06
      5.59408356000020E-19
      1.00000000000000E+00
      0.00000000000000E+00   0.00000000000000E+00   0.00000000000000E+00   0.00000000000000E+00  -1.36218363840188E-06
     -6.45644606824980E-19  -1.36218363840252E-06  -6.21564839999961E-19   1.00000000000000E-02   1.00000000000000E-02
      0.00000000000000E+00   0.00000000000000E+00   1.36218363840188E-06   6.45644606824980E-19   1.36218363840252E-06
      6.21564839999961E-19
      0.00000000000000E+00
      0.00000000000000E+00   0.00000000000000E+00   0.00000000000000E+00   0.00000000000000E+00  -1.36218363840188E-06
     -6.45644606824992E-19  -1.36218363840252E-06  -6.21564839999961E-19   1.00000000000000E-02   1.00000000000000E-02
      0.00000000000000E+00   0.00000000000000E+00   1.36218363840188E-06   6.45644606824992E-19   1.36218363840252E-06
      6.21564839999961E-19
      1.00000000000000E-01
      0.00000000000000E+00   0.00000000000000E+00   0.00000000000000E+00   0.00000000000000E+00  -2.58814891296366E-06
     -1.22672475296752E-18  -2.58814891296489E-06  -1.18097319599998E-18   1.90000000000000E-02   1.90000000000000E-02
      0.00000000000000E+00   0.00000000000000E+00   2.58814891296366E-06   1.22672475296752E-18   2.58814891296489E-06
      1.18097319599998E-18
      2.00000000000000E-01
      0.00000000000000E+00   0.00000000000000E+00   0.00000000000000E+00   0.00000000000000E+00  -3.81411418752548E-06
     -1.80780489911005E-18  -3.81411418752729E-06  -1.74038155200000E-18   2.80000000000000E-02   2.80000000000000E-02
      0.00000000000000E+00   0.00000000000000E+00   3.81411418752548E-06   1.80780489911005E-18   3.81411418752729E-06
      1.74038155200000E-18
      3.00000000000000E-01
      0.00000000000000E+00   0.00000000000000E+00   0.00000000000000E+00   0.00000000000000E+00  -5.04007946208724E-06
     -2.38888504525258E-18  -5.04007946208963E-06  -2.29978990800002E-18   3.70000000000000E-02   3.70000000000000E-02
      0.00000000000000E+00   0.00000000000000E+00   5.04007946208724E-06   2.38888504525258E-18   5.04007946208963E-06
      2.29978990800002E-18
      4.00000000000000E-01
      0.00000000000000E+00   0.00000000000000E+00   0.00000000000000E+00   0.00000000000000E+00  -6.26604473664906E-06
     -2.96996519139512E-18  -6.26604473665203E-06  -2.85919826400004E-18   4.60000000000000E-02   4.60000000000000E-02
      0.00000000000000E+00   0.00000000000000E+00   6.26604473664906E-06   2.96996519139512E-18   6.26604473665203E-06
      2.85919826400004E-18
      5.00000000000000E-01
      0.00000000000000E+00   0.00000000000000E+00   0.00000000000000E+00   0.00000000000000E+00  -7.49201001121069E-06
     -3.55104533753757E-18  -7.49201001121424E-06  -3.41860661999997E-18   5.50000000000000E-02   5.50000000000000E-02
      0.00000000000000E+00   0.00000000000000E+00   7.49201001121069E-06   3.55104533753757E-18   7.49201001121424E-06
      3.41860661999997E-18
      6.00000000000000E-01
      0.00000000000000E+00   0.00000000000000E+00   0.00000000000000E+00   0.00000000000000E+00  -8.71797528577245E-06
     -4.13212548368010E-18  -8.71797528577658E-06  -3.97801497599999E-18   6.40000000000000E-02   6.40000000000000E-02
      0.00000000000000E+00   0.00000000000000E+00   8.71797528577245E-06   4.13212548368010E-18   8.71797528577658E-06
      3.97801497599999E-18
      7.00000000000000E-01
      0.00000000000000E+00   0.00000000000000E+00   0.00000000000000E+00   0.00000000000000E+00  -9.94394056033406E-06
     -4.71320562982252E-18  -9.94394056033877E-06  -4.53742333199992E-18   7.30000000000000E-02   7.30000000000000E-02
      0.00000000000000E+00   0.00000000000000E+00   9.94394056033406E-06   4.71320562982252E-18   9.94394056033877E-06
      4.53742333199992E-18
      8.00000000000000E-01
      0.00000000000000E+00   0.00000000000000E+00   0.00000000000000E+00   0.00000000000000E+00  -1.11699058348961E-05
     -5.29428577596517E-18  -1.11699058349014E-05  -5.09683168800003E-18   8.20000000000000E-02   8.20000000000000E-02
      0.00000000000000E+00   0.00000000000000E+00   1.11699058348961E-05   5.29428577596517E-18   1.11699058349014E-05
      5.09683168800003E-18
      9.00000000000000E-01
      0.00000000000000E+00   0.00000000000000E+00   0.00000000000000E+00   0.00000000000000E+00  -1.23958711094577E-05
     -5.87536592210763E-18  -1.23958711094635E-05  -5.65624004399995E-18   9.10000000000000E-02   9.10000000000000E-02
      0.00000000000000E+00   0.00000000000000E+00   1.23958711094577E-05   5.87536592210763E-18   1.23958711094635E-05
      5.65624004399996E-18
      1.00000000000000E+00
      0.00000000000000E+00   0.00000000000000E+00   0.00000000000000E+00   0.00000000000000E+00  -1.36218363840197E-05
     -6.45644606825022E-18  -1.36218363840261E-05  -6.21564840000006E-18   1.00000000000000E-01   1.00000000000000E-01
      0.00000000000000E+00   0.00000000000000E+00   1.36218363840197E-05   6.45644606825022E-18   1.36218363840261E-05
      6.21564840000007E-18
      0.00000000000000E+00
      0.00000000000000E+00   0.00000000000000E+00   0.00000000000000E+00   0.00000000000000E+00  -1.36218363840196E-05
     -6.45644606825019E-18  -1.36218363840261E-05  -6.21564840000004E-18   1.00000000000000E-01   1.00000000000000E-01
      0.00000000000000E+00   0.00000000000000E+00   1.36218363840196E-05   6.45644606825019E-18   1.36218363840261E-05
      6.21564840000004E-18
      2.00000000000000E-02
      0.00000000000000E+00   0.00000000000000E+00   0.00000000000000E+00   0.00000000000000E+00  -1.60737669331431E-05
     -7.61860636053521E-18  -1.60737669331507E-05  -7.33446511200001E-18   1.18000000000000E-01   1.18000000000000E-01
      0.00000000000000E+00   0.00000000000000E+00   1.60737669331431E-05   7.61860636053521E-18   1.60737669331507E-05
      7.33446511200001E-18
      4.00000000000000E-02
      0.00000000000000E+00   0.00000000000000E+00   0.00000000000000E+00   0.00000000000000E+00  -1.85256974822667E-05
     -8.78076665282030E-18  -1.85256974822755E-05  -8.45328182400006E-18   1.36000000000000E-01   1.36000000000000E-01
      0.00000000000000E+00   0.00000000000000E+00   1.85256974822667E-05   8.78076665282030E-18   1.85256974822755E-05
      8.45328182400005E-18
      6.00000000000000E-02
      0.00000000000000E+00   0.00000000000000E+00   0.00000000000000E+00   0.00000000000000E+00  -2.09776280313899E-05
     -9.94292694510517E-18  -2.09776280313998E-05  -9.57209853599991E-18   1.54000000000000E-01   1.54000000000000E-01
      0.00000000000000E+00   0.00000000000000E+00   2.09776280313899E-05   9.94292694510517E-18   2.09776280313998E-05
      9.57209853599991E-18
      8.00000000000000E-02
      0.00000000000000E+00   0.00000000000000E+00   0.00000000000000E+00   0.00000000000000E+00  -2.34295585805135E-05
     -1.11050872373903E-17  -2.34295585805246E-05  -1.06909152480000E-17   1.72000000000000E-01   1.72000000000000E-01
      0.00000000000000E+00   0.00000000000000E+00   2.34295585805135E-05   1.11050872373903E-17   2.34295585805246E-05
      1.06909152480000E-17
      1.00000000000000E-01
      0.00000000000000E+00   0.00000000000000E+00   0.00000000000000E+00   0.00000000000000E+00  -2.58814891296371E-05
     -1.22672475296753E-17  -2.58814891296493E-05  -1.18097319600000E-17   1.90000000000000E-01   1.90000000000000E-01
      0.00000000000000E+00   0.00000000000000E+00   2.58814891296371E-05   1.22672475296753E-17   2.58814891296493E-05
      1.18097319600000E-17
      1.20000000000000E-01
      0.00000000000000E+00   0.00000000000000E+00   0.00000000000000E+00   0.00000000000000E+00  -2.83334196787606E-05
     -1.34294078219604E-17  -2.83334196787741E-05  -1.29285486720000E-17   2.08000000000000E-01   2.08000000000000E-01
      0.00000000000000E+00   0.00000000000000E+00   2.83334196787606E-05   1.34294078219604E-17   2.83334196787741E-05
      1.29285486720000E-17
      1.40000000000000E-01
      0.00000000000000E+00   0.00000000000000E+00   0.00000000000000E+00   0.00000000000000E+00  -3.07853502278839E-05
     -1.45915681142452E-17  -3.07853502278985E-05  -1.40473653839999E-17   2.26000000000000E-01   2.26000000000000E-01
      0.00000000000000E+00   0.00000000000000E+00   3.07853502278839E-05   1.45915681142452E-17   3.07853502278985E-05
      1.40473653839999E-17
      1.60000000000000E-01
      0.00000000000000E+00   0.00000000000000E+00   0.00000000000000E+00   0.00000000000000E+00  -3.32372807770078E-05
     -1.57537284065305E-17  -3.32372807770236E-05  -1.51661820960001E-17   2.44000000000000E-01   2.44000000000000E-01
      0.00000000000000E+00   0.00000000000000E+00   3.32372807770078E-05   1.57537284065305E-17   3.32372807770236E-05
      1.51661820960001E-17
      1.80000000000000E-01
      0.00000000000000E+00   0.00000000000000E+00   0.00000000000000E+00   0.00000000000000E+00  -3.56892113261311E-05
     -1.69158886988153E-17  -3.56892113261480E-05  -1.62849988080000E-17   2.62000000000000E-01   2.62000000000000E-01
      0.00000000000000E+00   0.00000000000000E+00   3.56892113261311E-05   1.69158886988153E-17   3.56892113261480E-05
      1.62849988080000E-17
      2.00000000000000E-01
      0.00000000000000E+00   0.00000000000000E+00   0.00000000000000E+00   0.00000000000000E+00  -3.81411418752547E-05
     -1.80780489911005E-17  -3.81411418752727E-05  -1.74038155200000E-17   2.80000000000000E-01   2.80000000000000E-01
      0.00000000000000E+00   0.00000000000000E+00   3.81411418752547E-05   1.80780489911005E-17   3.81411418752727E-05
      1.74038155200000E-17
      2.20000000000000E-01
      0.00000000000000E+00   0.00000000000000E+00   0.00000000000000E+00   0.00000000000000E+00  -4.05930724243783E-05
     -1.92402092833855E-17  -4.05930724243975E-05  -1.85226322320000E-17   2.98000000000000E-01   2.98000000000000E-01
      0.00000000000000E+00   0.00000000000000E+00   4.05930724243783E-05   1.92402092833855E-17   4.05930724243975E-05
      1.85226322320000E-17
      2.40000000000000E-01
      0.00000000000000E+00   0.00000000000000E+00   0.00000000000000E+00   0.00000000000000E+00  -4.30450029735018E-05
     -2.04023695756706E-17  -4.30450029735222E-05  -1.96414489440001E-17   3.16000000000000E-01   3.16000000000000E-01
      0.00000000000000E+00   0.00000000000000E+00   4.30450029735018E-05   2.04023695756706E-17   4.30450029735222E-05
      1.96414489440001E-17
      2.60000000000000E-01
      0.00000000000000E+00   0.00000000000000E+00   0.00000000000000E+00   0.00000000000000E+00  -4.54969335226250E-05
     -2.15645298679554E-17  -4.54969335226466E-05  -2.07602656559999E-17   3.34000000000000E-01   3.34000000000000E-01
      0.00000000000000E+00   0.00000000000000E+00   4.54969335226250E-05   2.15645298679554E-17   4.54969335226466E-05
      2.07602656559999E-17
      2.80000000000000E-01
      0.00000000000000E+00   0.00000000000000E+00   0.00000000000000E+00   0.00000000000000E+00  -4.79488640717486E-05
     -2.27266901602406E-17  -4.79488640717714E-05  -2.18790823680000E-17   3.52000000000000E-01   3.52000000000000E-01
      0.00000000000000E+00   0.00000000000000E+00   4.79488640717486E-05   2.27266901602406E-17   4.79488640717714E-05
      2.18790823680000E-17
      3.00000000000000E-01
      0.00000000000000E+00   0.00000000000000E+00   0.00000000000000E+00   0.00000000000000E+00  -5.04007946208723E-05
     -2.38888504525257E-17  -5.04007946208961E-05  -2.29978990800000E-17   3.70000000000000E-01   3.70000000000000E-01
      0.00000000000000E+00   0.00000000000000E+00   5.04007946208723E-05   2.38888504525257E-17   5.04007946208961E-05
      2.29978990800000E-17
      3.20000000000000E-01
      0.00000000000000E+00   0.00000000000000E+00   0.00000000000000E+00   0.00000000000000E+00  -5.28527251699959E-05
     -2.50510107448106E-17  -5.28527251700209E-05  -2.41167157920001E-17   3.88000000000000E-01   3.88000000000000E-01
      0.00000000000000E+00   0.00000000000000E+00   5.28527251699959E-05   2.50510107448106E-17   5.28527251700209E-05
      2.41167157920001E-17
      3.40000000000000E-01
      0.00000000000000E+00   0.00000000000000E+00   0.00000000000000E+00   0.00000000000000E+00  -5.53046557191195E-05
     -2.62131710370958E-17  -5.53046557191457E-05  -2.52355325040001E-17   4.06000000000000E-01   4.06000000000000E-01
      0.00000000000000E+00   0.00000000000000E+00   5.53046557191195E-05   2.62131710370958E-17   5.53046557191457E-05
      2.52355325040001E-17
      3.60000000000000E-01
      0.00000000000000E+00   0.00000000000000E+00   0.00000000000000E+00   0.00000000000000E+00  -5.77565862682427E-05
     -2.73753313293807E-17  -5.77565862682700E-05  -2.63543492159999E-17   4.24000000000000E-01   4.24000000000000E-01
      0.00000000000000E+00   0.00000000000000E+00   5.77565862682427E-05   2.73753313293807E-17   5.77565862682700E-05
      2.63543492160000E-17
      3.80000000000000E-01
      0.00000000000000E+00   0.00000000000000E+00   0.00000000000000E+00   0.00000000000000E+00  -6.02085168173663E-05
     -2.85374916216658E-17  -6.02085168173948E-05  -2.74731659280000E-17   4.42000000000000E-01   4.42000000000000E-01
      0.00000000000000E+00   0.00000000000000E+00   6.02085168173663E-05   2.85374916216658E-17   6.02085168173948E-05
      2.74731659280000E-17
      4.00000000000000E-01
      0.00000000000000E+00   0.00000000000000E+00   0.00000000000000E+00   0.00000000000000E+00  -6.26604473664899E-05
     -2.96996519139509E-17  -6.26604473665196E-05  -2.85919826400000E-17   4.60000000000000E-01   4.60000000000000E-01
      0.00000000000000E+00   0.00000000000000E+00   6.26604473664899E-05   2.96996519139509E-17   6.26604473665196E-05
      2.85919826400000E-17
      4.20000000000000E-01
      0.00000000000000E+00   0.00000000000000E+00   0.00000000000000E+00   0.00000000000000E+00  -6.51123779156134E-05
     -3.08618122062359E-17  -6.51123779156443E-05  -2.97107993520001E-17   4.78000000000000E-01   4.78000000000000E-01
      0.00000000000000E+00   0.00000000000000E+00   6.51123779156134E-05   3.08618122062359E-17   6.51123779156443E-05
      2.97107993520001E-17
      4.40000000000000E-01
      0.00000000000000E+00   0.00000000000000E+00   0.00000000000000E+00   0.00000000000000E+00  -6.75643084647367E-05
     -3.20239724985207E-17  -6.75643084647687E-05  -3.08296160639999E-17   4.96000000000000E-01   4.96000000000000E-01
      0.00000000000000E+00   0.00000000000000E+00   6.75643084647367E-05   3.20239724985207E-17   6.75643084647687E-05
      3.08296160639999E-17
      4.60000000000000E-01
      0.00000000000000E+00   0.00000000000000E+00   0.00000000000000E+00   0.00000000000000E+00  -7.00162390138602E-05
     -3.31861327908059E-17  -7.00162390138934E-05  -3.19484327760000E-17   5.14000000000000E-01   5.14000000000000E-01
      0.00000000000000E+00   0.00000000000000E+00   7.00162390138602E-05   3.31861327908059E-17   7.00162390138934E-05
      3.19484327760000E-17
      4.80000000000000E-01
      0.00000000000000E+00   0.00000000000000E+00   0.00000000000000E+00   0.00000000000000E+00  -7.24681695629838E-05
     -3.43482930830910E-17  -7.24681695630182E-05  -3.30672494880000E-17   5.32000000000000E-01   5.32000000000000E-01
      0.00000000000000E+00   0.00000000000000E+00   7.24681695629838E-05   3.43482930830910E-17   7.24681695630182E-05
      3.30672494880000E-17
      5.00000000000000E-01
      0.00000000000000E+00   0.00000000000000E+00   0.00000000000000E+00   0.00000000000000E+00  -7.49201001121074E-05
     -3.55104533753759E-17  -7.49201001121429E-05  -3.41860662000000E-17   5.50000000000000E-01   5.50000000000000E-01
      0.00000000000000E+00   0.00000000000000E+00   7.49201001121074E-05   3.55104533753759E-17   7.49201001121429E-05
      3.41860662000001E-17
      5.20000000000000E-01
      0.00000000000000E+00   0.00000000000000E+00   0.00000000000000E+00   0.00000000000000E+00  -7.73720306612311E-05
     -3.66726136676611E-17  -7.73720306612677E-05  -3.53048829120001E-17   5.68000000000000E-01   5.68000000000000E-01
      0.00000000000000E+00   0.00000000000000E+00   7.73720306612311E-05   3.66726136676611E-17   7.73720306612677E-05
      3.53048829120001E-17
      5.40000000000000E-01
      0.00000000000000E+00   0.00000000000000E+00   0.00000000000000E+00   0.00000000000000E+00  -7.98239612103546E-05
     -3.78347739599462E-17  -7.98239612103925E-05  -3.64236996240001E-17   5.86000000000000E-01   5.86000000000000E-01
      0.00000000000000E+00   0.00000000000000E+00   7.98239612103546E-05   3.78347739599462E-17   7.98239612103925E-05
      3.64236996240001E-17
      5.60000000000000E-01
      0.00000000000000E+00   0.00000000000000E+00   0.00000000000000E+00   0.00000000000000E+00  -8.22758917594778E-05
     -3.89969342522311E-17  -8.22758917595169E-05  -3.75425163360000E-17   6.04000000000000E-01   6.04000000000000E-01
      0.00000000000000E+00   0.00000000000000E+00   8.22758917594778E-05   3.89969342522311E-17   8.22758917595169E-05
      3.75425163360000E-17
      5.80000000000000E-01
      0.00000000000000E+00   0.00000000000000E+00   0.00000000000000E+00   0.00000000000000E+00  -8.47278223086015E-05
     -4.01590945445160E-17  -8.47278223086416E-05  -3.86613330480000E-17   6.22000000000000E-01   6.22000000000000E-01
      0.00000000000000E+00   0.00000000000000E+00   8.47278223086015E-05   4.01590945445160E-17   8.47278223086416E-05
      3.86613330480000E-17
      6.00000000000000E-01
      0.00000000000000E+00   0.00000000000000E+00   0.00000000000000E+00   0.00000000000000E+00  -8.71797528577250E-05
     -4.13212548368012E-17  -8.71797528577664E-05  -3.97801497600001E-17   6.40000000000000E-01   6.40000000000000E-01
      0.00000000000000E+00   0.00000000000000E+00   8.71797528577250E-05   4.13212548368012E-17   8.71797528577664E-05
      3.97801497600001E-17
      6.20000000000000E-01
      0.00000000000000E+00   0.00000000000000E+00   0.00000000000000E+00   0.00000000000000E+00  -8.96316834068486E-05
     -4.24834151290862E-17  -8.96316834068911E-05  -4.08989664720001E-17   6.58000000000000E-01   6.58000000000000E-01
      0.00000000000000E+00   0.00000000000000E+00   8.96316834068486E-05   4.24834151290862E-17   8.96316834068911E-05
      4.08989664720001E-17
      6.40000000000000E-01
      0.00000000000000E+00   0.00000000000000E+00   0.00000000000000E+00   0.00000000000000E+00  -9.20836139559722E-05
     -4.36455754213712E-17  -9.20836139560159E-05  -4.20177831840002E-17   6.76000000000000E-01   6.76000000000000E-01
      0.00000000000000E+00   0.00000000000000E+00   9.20836139559722E-05   4.36455754213712E-17   9.20836139560159E-05
      4.20177831840001E-17
      6.60000000000000E-01
      0.00000000000000E+00   0.00000000000000E+00   0.00000000000000E+00   0.00000000000000E+00  -9.45355445050954E-05
     -4.48077357136562E-17  -9.45355445051402E-05  -4.31365998960000E-17   6.94000000000000E-01   6.94000000000000E-01
      0.00000000000000E+00   0.00000000000000E+00   9.45355445050954E-05   4.48077357136562E-17   9.45355445051402E-05
      4.31365998960000E-17
      6.80000000000000E-01
      0.00000000000000E+00   0.00000000000000E+00   0.00000000000000E+00   0.00000000000000E+00  -9.69874750542186E-05
     -4.59698960059410E-17  -9.69874750542646E-05  -4.42554166079998E-17   7.12000000000000E-01   7.12000000000000E-01
      0.00000000000000E+00   0.00000000000000E+00   9.69874750542186E-05   4.59698960059410E-17   9.69874750542646E-05
      4.42554166079999E-17
      7.00000000000000E-01
      0.00000000000000E+00   0.00000000000000E+00   0.00000000000000E+00   0.00000000000000E+00  -9.94394056033423E-05
     -4.71320562982260E-17  -9.94394056033894E-05  -4.53742333199999E-17   7.30000000000000E-01   7.30000000000000E-01
      0.00000000000000E+00   0.00000000000000E+00   9.94394056033423E-05   4.71320562982260E-17   9.94394056033894E-05
      4.53742333199999E-17
      7.20000000000000E-01
      0.00000000000000E+00   0.00000000000000E+00   0.00000000000000E+00   0.00000000000000E+00  -1.01891336152466E-04
     -4.82942165905113E-17  -1.01891336152514E-04  -4.64930500319999E-17   7.48000000000000E-01   7.48000000000000E-01
      0.00000000000000E+00   0.00000000000000E+00   1.01891336152466E-04   4.82942165905113E-17   1.01891336152514E-04
      4.64930500319999E-17
      7.40000000000000E-01
      0.00000000000000E+00   0.00000000000000E+00   0.00000000000000E+00   0.00000000000000E+00  -1.04343266701590E-04
     -4.94563768827964E-17  -1.04343266701639E-04  -4.76118667440002E-17   7.66000000000000E-01   7.66000000000000E-01
      0.00000000000000E+00   0.00000000000000E+00   1.04343266701590E-04   4.94563768827964E-17   1.04343266701639E-04
      4.76118667440002E-17
      7.60000000000000E-01
      0.00000000000000E+00   0.00000000000000E+00   0.00000000000000E+00   0.00000000000000E+00  -1.06795197250713E-04
     -5.06185371750814E-17  -1.06795197250764E-04  -4.87306834560000E-17   7.84000000000000E-01   7.84000000000000E-01
      0.00000000000000E+00   0.00000000000000E+00   1.06795197250713E-04   5.06185371750814E-17   1.06795197250764E-04
      4.87306834560000E-17
      7.80000000000000E-01
      0.00000000000000E+00   0.00000000000000E+00   0.00000000000000E+00   0.00000000000000E+00  -1.09247127799837E-04
     -5.17806974673665E-17  -1.09247127799888E-04  -4.98495001680000E-17   8.02000000000000E-01   8.02000000000000E-01
      0.00000000000000E+00   0.00000000000000E+00   1.09247127799837E-04   5.17806974673665E-17   1.09247127799888E-04
      4.98495001680000E-17
      8.00000000000000E-01
      0.00000000000000E+00   0.00000000000000E+00   0.00000000000000E+00   0.00000000000000E+00  -1.11699058348960E-04
     -5.29428577596515E-17  -1.11699058349013E-04  -5.09683168800000E-17   8.20000000000000E-01   8.20000000000000E-01
      0.00000000000000E+00   0.00000000000000E+00   1.11699058348960E-04   5.29428577596515E-17   1.11699058349013E-04
      5.09683168800001E-17
      8.20000000000000E-01
      0.00000000000000E+00   0.00000000000000E+00   0.00000000000000E+00   0.00000000000000E+00  -1.14150988898083E-04
     -5.41050180519362E-17  -1.14150988898138E-04  -5.20871335920000E-17   8.38000000000000E-01   8.38000000000000E-01
      0.00000000000000E+00   0.00000000000000E+00   1.14150988898083E-04   5.41050180519362E-17   1.14150988898138E-04
      5.20871335919999E-17
      8.40000000000000E-01
      0.00000000000000E+00   0.00000000000000E+00   0.00000000000000E+00   0.00000000000000E+00  -1.16602919447207E-04
     -5.52671783442213E-17  -1.16602919447262E-04  -5.32059503040000E-17   8.56000000000000E-01   8.56000000000000E-01
      0.00000000000000E+00   0.00000000000000E+00   1.16602919447207E-04   5.52671783442213E-17   1.16602919447262E-04
      5.32059503040000E-17
      8.60000000000000E-01
      0.00000000000000E+00   0.00000000000000E+00   0.00000000000000E+00   0.00000000000000E+00  -1.19054849996331E-04
     -5.64293386365065E-17  -1.19054849996387E-04  -5.43247670160000E-17   8.74000000000000E-01   8.74000000000000E-01
      0.00000000000000E+00   0.00000000000000E+00   1.19054849996331E-04   5.64293386365065E-17   1.19054849996387E-04
      5.43247670160000E-17
      8.80000000000000E-01
      0.00000000000000E+00   0.00000000000000E+00   0.00000000000000E+00   0.00000000000000E+00  -1.21506780545454E-04
     -5.75914989287912E-17  -1.21506780545511E-04  -5.54435837279999E-17   8.92000000000000E-01   8.92000000000000E-01
      0.00000000000000E+00   0.00000000000000E+00   1.21506780545454E-04   5.75914989287912E-17   1.21506780545511E-04
      5.54435837279999E-17
      9.00000000000000E-01
      0.00000000000000E+00   0.00000000000000E+00   0.00000000000000E+00   0.00000000000000E+00  -1.23958711094578E-04
     -5.87536592210764E-17  -1.23958711094637E-04  -5.65624004400001E-17   9.10000000000000E-01   9.10000000000000E-01
      0.00000000000000E+00   0.00000000000000E+00   1.23958711094578E-04   5.87536592210764E-17   1.23958711094637E-04
      5.65624004400001E-17
      9.20000000000000E-01
      0.00000000000000E+00   0.00000000000000E+00   0.00000000000000E+00   0.00000000000000E+00  -1.26410641643701E-04
     -5.99158195133617E-17  -1.26410641643761E-04  -5.76812171520002E-17   9.28000000000000E-01   9.28000000000000E-01
      0.00000000000000E+00   0.00000000000000E+00   1.26410641643701E-04   5.99158195133617E-17   1.26410641643761E-04
      5.76812171520001E-17
      9.40000000000001E-01