DF-ISE text

Info {
  version   = 1.0
  type      = xyplot
  datasets  = [
    "time"
    "n1contact OuterVoltage" "n1contact InnerVoltage" "n1contact QuasiFermiPotential" "n1contact DisplacementCurrent" "n1contact eCurrent"
    "n1contact hCurrent" "n1contact TotalCurrent" "n1contact Charge" "n2contact OuterVoltage" "n2contact InnerVoltage"
    "n2contact QuasiFermiPotential" "n2contact DisplacementCurrent" "n2contact eCurrent" "n2contact hCurrent" "n2contact TotalCurrent"
    "n2contact Charge" ]
  functions = [
    Time
    OuterVoltage InnerVoltage QuasiFermiPotential DisplacementCurrent eCurrent
    hCurrent TotalCurrent Charge OuterVoltage InnerVoltage
    QuasiFermiPotential DisplacementCurrent eCurrent hCurrent TotalCurrent
    Charge ]
}

Data {
      0.00000000000000E+00
      2.00000000000000E+00   2.00000000000000E+00   0.00000000000000E+00   0.00000000000000E+00   6.16806586255517E-02
      2.04876411634452E-02   8.21682997889969E-02  -4.07511255277326E-17   0.00000000000000E+00   0.00000000000000E+00
      0.00000000000000E+00   0.00000000000000E+00  -6.16812739469114E-02  -2.04870258420855E-02  -8.21682997889969E-02
      4.07511255277329E-17
      1.00000000000000E-02
      1.88000000000000E+00   1.88000000000000E+00   0.00000000000000E+00   0.00000000000000E+00   5.07626157663440E-02
      1.68615775583682E-02   6.76241933247122E-02  -4.98592823505758E-17   0.00000000000000E+00   0.00000000000000E+00
      0.00000000000000E+00   0.00000000000000E+00  -5.07631821573376E-02  -1.68610111673731E-02  -6.76241933247108E-02
      4.98592823505753E-17
      2.00000000000000E-02
      1.76000000000000E+00   1.76000000000000E+00   0.00000000000000E+00   0.00000000000000E+00   4.05432004376209E-02
      1.34675088621667E-02   5.40107092997876E-02  -6.07238444630649E-17   0.00000000000000E+00   0.00000000000000E+00
      0.00000000000000E+00   0.00000000000000E+00  -4.05437136592723E-02  -1.34669956405151E-02  -5.40107092997874E-02
      6.07238444630652E-17
      3.00000000000000E-02
      1.64000000000000E+00   1.64000000000000E+00   0.00000000000000E+00   0.00000000000000E+00   3.11619804934107E-02
      1.03517753730971E-02   4.15137558665079E-02  -7.41437303117025E-17   0.00000000000000E+00   0.00000000000000E+00
      0.00000000000000E+00   0.00000000000000E+00  -3.11624362069039E-02  -1.03513196596056E-02  -4.15137558665096E-02
      7.41437303117027E-17
      4.00000000000000E-02
      1.52000000000000E+00   1.52000000000000E+00   0.00000000000000E+00   0.00000000000000E+00   2.27671831308982E-02
      7.56359219623973E-03   3.03307753271380E-02  -9.14738269353827E-17   0.00000000000000E+00   0.00000000000000E+00
      0.00000000000000E+00   0.00000000000000E+00  -2.27675770424016E-02  -7.56319828473659E-03  -3.03307753271382E-02
      9.14738269353828E-17
      5.00000000000000E-02
      1.40000000000000E+00   1.40000000000000E+00   0.00000000000000E+00   0.00000000000000E+00   1.55084772844122E-02
      5.15265272721294E-03   2.06611300116252E-02  -1.15200892454580E-16   0.00000000000000E+00   0.00000000000000E+00
      0.00000000000000E+00   0.00000000000000E+00  -1.55088053305463E-02  -5.15232468107877E-03  -2.06611300116251E-02
      1.15200892454580E-16
      6.00000000000000E-02
      1.28000000000000E+00   1.28000000000000E+00   0.00000000000000E+00   0.00000000000000E+00   9.52730474498597E-03
      3.16591813924962E-03   1.26932228842356E-02  -1.50418454766856E-16   0.00000000000000E+00   0.00000000000000E+00
      0.00000000000000E+00   0.00000000000000E+00  -9.52756330706033E-03  -3.16565957717504E-03  -1.26932228842354E-02
      1.50418454766856E-16
      7.00000000000000E-02
      1.16000000000000E+00   1.16000000000000E+00   0.00000000000000E+00   0.00000000000000E+00   4.94572196094028E-03
      1.64391221437237E-03   6.58963417531265E-03  -2.09384190926139E-16   0.00000000000000E+00   0.00000000000000E+00
      0.00000000000000E+00   0.00000000000000E+00  -4.94590809181952E-03  -1.64372608349307E-03  -6.58963417531259E-03
      2.09384190926137E-16
      8.00000000000000E-02
      1.04000000000000E+00   1.04000000000000E+00   0.00000000000000E+00   0.00000000000000E+00   1.85569909187088E-03
      6.17169016421085E-04   2.47286810829196E-03  -3.30191107831108E-16   0.00000000000000E+00   0.00000000000000E+00
      0.00000000000000E+00   0.00000000000000E+00  -1.85581083024284E-03  -6.17057278049193E-04  -2.47286810829204E-03
      3.30191107831109E-16
      9.00000000000000E-02
      9.20000000000000E-01   9.20000000000000E-01   0.00000000000000E+00   0.00000000000000E+00   3.02267302232707E-04
      1.00671047609789E-04   4.02938349842496E-04  -6.92231048173701E-16   0.00000000000000E+00   0.00000000000000E+00
      0.00000000000000E+00   0.00000000000000E+00  -3.02306046488979E-04  -1.00632303353522E-04  -4.02938349842501E-04
      6.92231048173704E-16
      1.00000000000000E-01
      8.00000000000000E-01   8.00000000000000E-01   0.00000000000000E+00   0.00000000000000E+00   6.76472603608834E-06
      2.25609114404063E-06   9.02081718012898E-06  -1.93280057936283E-15   0.00000000000000E+00   0.00000000000000E+00
      0.00000000000000E+00   0.00000000000000E+00  -6.76629969308615E-06  -2.25451748704277E-06  -9.02081718012892E-06
      1.93280057936284E-15
      1.10000000000000E-01
      6.80000000000000E-01   6.80000000000000E-01   0.00000000000000E+00   0.00000000000000E+00   6.68685283100957E-08
      2.23035829002697E-08   8.91721112103654E-08  -3.34116424701652E-15   0.00000000000000E+00   0.00000000000000E+00
      0.00000000000000E+00   0.00000000000000E+00  -6.68853061334523E-08  -2.22868050769120E-08  -8.91721112103643E-08
      3.34116424701656E-15
      1.20000000000000E-01
      5.60000000000000E-01   5.60000000000000E-01   0.00000000000000E+00   0.00000000000000E+00   6.45824959727528E-10
      2.15450798498474E-10   8.61275758226002E-10  -4.36808510614732E-15   0.00000000000000E+00   0.00000000000000E+00
      0.00000000000000E+00   0.00000000000000E+00  -6.46025304803242E-10  -2.15250453422774E-10  -8.61275758226016E-10
      4.36808510614739E-15
      1.30000000000000E-01
      4.40000000000000E-01   4.40000000000000E-01   0.00000000000000E+00   0.00000000000000E+00   6.23400909717107E-12
      2.08179640609971E-12   8.31580550327078E-12  -5.19801876811836E-15   0.00000000000000E+00   0.00000000000000E+00
      0.00000000000000E+00   0.00000000000000E+00  -6.23802776849265E-12  -2.07777773477815E-12  -8.31580550327080E-12
      5.19801876811846E-15
      1.40000000000000E-01
      3.20000000000000E-01   3.20000000000000E-01   0.00000000000000E+00   0.00000000000000E+00   6.01606918319684E-14
      2.02124866605395E-14   8.03731784925079E-14  -5.91921100272217E-15   0.00000000000000E+00   0.00000000000000E+00
      0.00000000000000E+00   0.00000000000000E+00  -6.03216863186106E-14  -2.00514921738998E-14  -8.03731784925103E-14
      5.91921100272219E-15
      1.50000000000000E-01
      2.00000000000000E-01   2.00000000000000E-01   0.00000000000000E+00   0.00000000000000E+00   5.80318075080226E-16
      2.02567145959690E-16   7.82885221039916E-16  -6.55765431048486E-15   0.00000000000000E+00   0.00000000000000E+00
      0.00000000000000E+00   0.00000000000000E+00  -5.89465032856714E-16  -1.93420188183203E-16  -7.82885221039917E-16
      6.55765431048478E-15
      1.60000000000000E-01
      8.00000000000001E-02   8.00000000000001E-02   0.00000000000000E+00   0.00000000000000E+00   5.34833130981917E-18
      2.33519341484645E-18   7.68352472466562E-18  -7.13625893067219E-15   0.00000000000000E+00   0.00000000000000E+00
      0.00000000000000E+00   0.00000000000000E+00  -5.90091746207911E-18  -1.78260726258643E-18  -7.68352472466555E-18
      7.13625893067217E-15
      1.70000000000000E-01
     -4.00000000000000E-02  -4.00000000000000E-02   0.00000000000000E+00   0.00000000000000E+00  -1.99930832533794E-19
     -2.04887109105296E-19  -4.04817941639090E-19  -7.67371291296719E-15   0.00000000000000E+00   0.00000000000000E+00
      0.00000000000000E+00   0.00000000000000E+00   3.38180461042855E-19   6.66374805962326E-20   4.04817941639087E-19
      7.67371291296725E-15
      1.80000000000000E-01
     -1.60000000000000E-01  -1.60000000000000E-01   0.00000000000000E+00   0.00000000000000E+00  -2.53651340378276E-19
     -1.14229761200022E-18  -1.39594895237849E-18  -8.17846758197221E-15   0.00000000000000E+00   0.00000000000000E+00
      0.00000000000000E+00   0.00000000000000E+00   1.31140597692509E-18   8.45429754534059E-20   1.39594895237849E-18
      8.17846758197216E-15
      1.90000000000000E-01
     -2.80000000000000E-01  -2.80000000000000E-01   0.00000000000000E+00   0.00000000000000E+00  -2.54358362370370E-19
     -4.01424533604845E-18  -4.26860369841882E-18  -8.65335479442752E-15   0.00000000000000E+00   0.00000000000000E+00
      0.00000000000000E+00   0.00000000000000E+00   4.18382479531377E-18   8.47789031049842E-20   4.26860369841876E-18
      8.65335479442753E-15
      2.00000000000000E-01
     -4.00000000000000E-01  -4.00000000000000E-01   0.00000000000000E+00   0.00000000000000E+00  -2.54544819396937E-19
     -6.96136254686355E-18  -7.21590736626048E-18  -9.10136816694838E-15   0.00000000000000E+00   0.00000000000000E+00
      0.00000000000000E+00   0.00000000000000E+00   7.13106605633846E-18   8.48413099220806E-20   7.21590736626054E-18
      9.10136816694840E-15
      2.10000000000000E-01
     -5.20000000000000E-01  -5.20000000000000E-01   0.00000000000000E+00   0.00000000000000E+00  -2.54716855167720E-19
     -7.89957377044111E-18  -8.15429062560883E-18  -9.52725186482639E-15   0.00000000000000E+00   0.00000000000000E+00
      0.00000000000000E+00   0.00000000000000E+00   8.06939172891637E-18   8.48988966925313E-20   8.15429062560891E-18
      9.52725186482632E-15
      2.20000000000000E-01
     -6.40000000000001E-01  -6.40000000000001E-01   0.00000000000000E+00   0.00000000000000E+00  -2.54880724997354E-19
     -8.10493194719640E-18  -8.35981267219376E-18  -9.93563625608985E-15   0.00000000000000E+00   0.00000000000000E+00
      0.00000000000000E+00   0.00000000000000E+00   8.27485892183829E-18   8.49537503557027E-20   8.35981267219399E-18
      9.93563625608976E-15
      2.30000000000000E-01
     -7.60000000000001E-01  -7.60000000000001E-01   0.00000000000000E+00   0.00000000000000E+00  -2.55038407293469E-19
     -8.35670032690743E-18  -8.61173873420089E-18  -1.03293351279769E-14   0.00000000000000E+00   0.00000000000000E+00
      0.00000000000000E+00   0.00000000000000E+00   8.52673220113395E-18   8.50065330669594E-20   8.61173873420091E-18
      1.03293351279769E-14
      2.40000000000000E-01
     -8.80000000000001E-01  -8.80000000000001E-01   0.00000000000000E+00   0.00000000000000E+00  -2.55191377707446E-19
     -9.21597473331024E-18  -9.47116611101769E-18  -1.07093933456414E-14   0.00000000000000E+00   0.00000000000000E+00
      0.00000000000000E+00   0.00000000000000E+00   9.38610837224779E-18   8.50577387700064E-20   9.47116611101780E-18
      1.07093933456416E-14
      2.50000000000000E-01
     -1.00000000000000E+00  -1.00000000000000E+00   0.00000000000000E+00   0.00000000000000E+00  -2.55340187030381E-19
     -1.13605814446320E-17  -1.16159216316624E-17  -1.10761069329604E-14   0.00000000000000E+00   0.00000000000000E+00
      0.00000000000000E+00   0.00000000000000E+00   1.15308140798393E-17   8.51075518228093E-20   1.16159216316621E-17
      1.10761069329606E-14
      2.60000000000000E-01
     -1.12000000000000E+00  -1.12000000000000E+00   0.00000000000000E+00   0.00000000000000E+00  -2.55484640299483E-19
     -1.40070604369066E-17  -1.42625450772061E-17  -1.14300420570642E-14   0.00000000000000E+00   0.00000000000000E+00
      0.00000000000000E+00   0.00000000000000E+00   1.41773891702902E-17   8.51559069157558E-20   1.42625450772060E-17
      1.14300420570645E-14
      2.70000000000000E-01
     -1.24000000000000E+00  -1.24000000000000E+00   0.00000000000000E+00   0.00000000000000E+00  -2.55624395995688E-19
     -1.54768380820926E-17  -1.57324624780883E-17  -1.17724623887301E-14   0.00000000000000E+00   0.00000000000000E+00
      0.00000000000000E+00   0.00000000000000E+00   1.56472597883930E-17   8.52026896950774E-20   1.57324624780881E-17
      1.17724623887302E-14
      2.80000000000000E-01
     -1.36000000000000E+00  -1.36000000000000E+00   0.00000000000000E+00   0.00000000000000E+00  -2.55759515005255E-19
     -1.59261890903416E-17  -1.61819486053468E-17  -1.21050314428579E-14   0.00000000000000E+00   0.00000000000000E+00
      0.00000000000000E+00   0.00000000000000E+00   1.60967006848109E-17   8.52479205356070E-20   1.61819486053465E-17
      1.21050314428580E-14
      2.90000000000000E-01
     -1.48000000000000E+00  -1.48000000000000E+00   0.00000000000000E+00   0.00000000000000E+00  -2.55890574124871E-19
     -1.60712375889875E-17  -1.63271281631124E-17  -1.24292185482030E-14   0.00000000000000E+00   0.00000000000000E+00
      0.00000000000000E+00   0.00000000000000E+00   1.62418363706049E-17   8.52917925075222E-20   1.63271281631124E-17
      1.24292185482031E-14
      3.00000000000000E-01
     -1.60000000000000E+00  -1.60000000000000E+00   0.00000000000000E+00   0.00000000000000E+00  -2.56018400121069E-19
     -1.62425002893346E-17  -1.64985186894556E-17  -1.27459335876313E-14   0.00000000000000E+00   0.00000000000000E+00
      0.00000000000000E+00   0.00000000000000E+00   1.64131841070967E-17   8.53345823590301E-20   1.64985186894557E-17
      1.27459335876314E-14
      3.10000000000000E-01
     -1.72000000000000E+00  -1.72000000000000E+00   0.00000000000000E+00   0.00000000000000E+00  -2.56143721093992E-19
     -1.67018605851014E-17  -1.69580043061954E-17  -1.30555308682075E-14   0.00000000000000E+00   0.00000000000000E+00
      0.00000000000000E+00   0.00000000000000E+00   1.68726277723805E-17   8.53765338153824E-20   1.69580043061959E-17
      1.30555308682074E-14
      3.20000000000000E-01
     -1.84000000000000E+00  -1.84000000000000E+00   0.00000000000000E+00   0.00000000000000E+00  -2.56266934138104E-19
     -1.78619459315758E-17  -1.81182128657139E-17  -1.33580425871610E-14   0.00000000000000E+00   0.00000000000000E+00
      0.00000000000000E+00   0.00000000000000E+00   1.80327950859117E-17   8.54177798017859E-20   1.81182128657135E-17
      1.33580425871609E-14
      3.30000000000000E-01
     -1.96000000000000E+00  -1.96000000000000E+00   0.00000000000000E+00   0.00000000000000E+00  -2.56388050814126E-19
     -1.99015869288504E-17  -2.01579749796646E-17  -1.36534775632193E-14   0.00000000000000E+00   0.00000000000000E+00
      0.00000000000000E+00   0.00000000000000E+00   2.00725166554894E-17   8.54583241752197E-20   2.01579749796646E-17
      1.36534775632192E-14
      3.40000000000000E-01
     -2.08000000000000E+00  -2.08000000000000E+00   0.00000000000000E+00   0.00000000000000E+00  -2.56506818896946E-19
     -2.20312303331827E-17  -2.22877371520797E-17  -1.39420571314616E-14   0.00000000000000E+00   0.00000000000000E+00
      0.00000000000000E+00   0.00000000000000E+00   2.22022390696056E-17   8.54980824737836E-20   2.22877371520794E-17
      1.39420571314616E-14
      3.50000000000000E-01
     -2.20000000000000E+00  -2.20000000000000E+00   0.00000000000000E+00   0.00000000000000E+00  -2.56622957386193E-19
     -2.33105516793369E-17  -2.35671746367231E-17  -1.42242892962917E-14   0.00000000000000E+00   0.00000000000000E+00
      0.00000000000000E+00   0.00000000000000E+00   2.34816376761048E-17   8.55369606180300E-20   2.35671746367228E-17
      1.42242892962917E-14
      3.60000000000000E-01
     -2.32000000000000E+00  -2.32000000000000E+00   0.00000000000000E+00   0.00000000000000E+00  -2.56736373384258E-19
     -2.38085861074602E-17  -2.40653224808445E-17  -1.45008617643739E-14   0.00000000000000E+00   0.00000000000000E+00
      0.00000000000000E+00   0.00000000000000E+00   2.39797475533371E-17   8.55749275078314E-20   2.40653224808449E-17
      1.45008617643736E-14
      3.70000000000000E-01
     -2.44000000000000E+00  -2.44000000000000E+00   0.00000000000000E+00   0.00000000000000E+00  -2.56847243002061E-19
     -2.39804723981991E-17  -2.42373196412012E-17  -1.47724463730137E-14   0.00000000000000E+00   0.00000000000000E+00
      0.00000000000000E+00   0.00000000000000E+00   2.41517075991084E-17   8.56120420923629E-20   2.42373196412008E-17
      1.47724463730135E-14
      3.80000000000000E-01
     -2.56000000000000E+00  -2.56000000000000E+00   0.00000000000000E+00   0.00000000000000E+00  -2.56955944602702E-19
     -2.40846944010936E-17  -2.43416503456963E-17  -1.50395420746259E-14   0.00000000000000E+00   0.00000000000000E+00
      0.00000000000000E+00   0.00000000000000E+00   2.42560019146716E-17   8.56484310252156E-20   2.43416503456968E-17
      1.50395420746258E-14
      3.90000000000000E-01
     -2.68000000000000E+00  -2.68000000000000E+00   0.00000000000000E+00   0.00000000000000E+00  -2.57062918868465E-19
     -2.42610018629166E-17  -2.45180647817851E-17  -1.53024188887539E-14   0.00000000000000E+00   0.00000000000000E+00
      0.00000000000000E+00   0.00000000000000E+00   2.44323805399616E-17   8.56842418234743E-20   2.45180647817851E-17
      1.53024188887538E-14
      4.00000000000000E-01
     -2.80000000000000E+00  -2.80000000000000E+00   0.00000000000000E+00   0.00000000000000E+00  -2.57168533003272E-19
     -2.46771618180800E-17  -2.49343303510833E-17  -1.55611513236468E-14   0.00000000000000E+00   0.00000000000000E+00
      0.00000000000000E+00   0.00000000000000E+00   2.48486107536740E-17   8.57195974092851E-20   2.49343303510832E-17
      1.55611513236464E-14
      4.10000000000000E-01
     -2.92000000000000E+00  -2.92000000000000E+00   0.00000000000000E+00   0.00000000000000E+00  -2.57272990032608E-19
     -2.55929859346974E-17  -2.58502589247300E-17  -1.58157034868265E-14   0.00000000000000E+00   0.00000000000000E+00
      0.00000000000000E+00   0.00000000000000E+00   2.57645043589838E-17   8.57545657458724E-20   2.58502589247297E-17
      1.58157034868264E-14
      4.20000000000000E-01
     -3.04000000000000E+00  -3.04000000000000E+00   0.00000000000000E+00   0.00000000000000E+00  -2.57376298944104E-19
     -2.71735947552370E-17  -2.74309710541811E-17  -1.60660316589811E-14   0.00000000000000E+00   0.00000000000000E+00
      0.00000000000000E+00   0.00000000000000E+00   2.73451819043478E-17   8.57891498346307E-20   2.74309710541824E-17
      1.60660316589811E-14
      4.30000000000000E-01
     -3.16000000000000E+00  -3.16000000000000E+00   0.00000000000000E+00   0.00000000000000E+00  -2.57478310470701E-19
     -2.90781958250932E-17  -2.93356741355639E-17  -1.63121741190593E-14   0.00000000000000E+00   0.00000000000000E+00
      0.00000000000000E+00   0.00000000000000E+00   2.92498508358758E-17   8.58232996879802E-20   2.93356741355638E-17
      1.63121741190596E-14
      4.40000000000000E-01
     -3.28000000000000E+00  -3.28000000000000E+00   0.00000000000000E+00   0.00000000000000E+00  -2.57578807920766E-19
     -3.06101708356671E-17  -3.08677496435879E-17  -1.65542989602233E-14   0.00000000000000E+00   0.00000000000000E+00
      0.00000000000000E+00   0.00000000000000E+00   3.07818927008382E-17   8.58569427503275E-20   3.08677496435885E-17
      1.65542989602233E-14
      4.50000000000000E-01
     -3.40000000000000E+00  -3.40000000000000E+00   0.00000000000000E+00   0.00000000000000E+00  -2.57677617937518E-19
     -3.14482844603440E-17  -3.17059620782815E-17  -1.67926925046358E-14   0.00000000000000E+00   0.00000000000000E+00
      0.00000000000000E+00   0.00000000000000E+00   3.16200720572984E-17   8.58900209837748E-20   3.17059620782822E-17
      1.67926925046359E-14
      4.60000000000000E-01
     -3.52000000000000E+00  -3.52000000000000E+00   0.00000000000000E+00   0.00000000000000E+00  -2.57774692713762E-19
     -3.18009183015910E-17  -3.20586929943047E-17  -1.70276981992388E-14   0.00000000000000E+00   0.00000000000000E+00
      0.00000000000000E+00   0.00000000000000E+00   3.19727704759233E-17   8.59225183808178E-20   3.20586929943041E-17
      1.70276981992387E-14
      4.70000000000000E-01
     -3.64000000000000E+00  -3.64000000000000E+00   0.00000000000000E+00   0.00000000000000E+00  -2.57870132218623E-19
     -3.19437320759117E-17  -3.22016022081304E-17  -1.72596398343366E-14   0.00000000000000E+00   0.00000000000000E+00
      0.00000000000000E+00   0.00000000000000E+00   3.21156477397286E-17   8.59544684020657E-20   3.22016022081307E-17
      1.72596398343366E-14
      4.80000000000000E-01
     -3.76000000000000E+00  -3.76000000000000E+00   0.00000000000000E+00   0.00000000000000E+00  -2.57964149941357E-19
     -3.20317790692715E-17  -3.22897432192128E-17  -1.74887633085805E-14   0.00000000000000E+00   0.00000000000000E+00
      0.00000000000000E+00   0.00000000000000E+00   3.22037572767024E-17   8.59859425099947E-20   3.22897432192124E-17
      1.74887633085805E-14
      4.90000000000000E-01
     -3.88000000000000E+00  -3.88000000000000E+00   0.00000000000000E+00   0.00000000000000E+00  -2.58057008776457E-19
     -3.21531521469295E-17  -3.24112091557059E-17  -1.77152124213458E-14   0.00000000000000E+00   0.00000000000000E+00
      0.00000000000000E+00   0.00000000000000E+00   3.23251921269992E-17   8.60170287064505E-20   3.24112091557056E-17
      1.77152124213456E-14
      5.00000000000000E-01
     -4.00000000000000E+00  -4.00000000000000E+00   0.00000000000000E+00   0.00000000000000E+00  -2.58148954149254E-19
     -3.23999752788671E-17  -3.26581242330163E-17  -1.79390359163502E-14   0.00000000000000E+00   0.00000000000000E+00
      0.00000000000000E+00   0.00000000000000E+00   3.25720764238706E-17   8.60478091456061E-20   3.26581242330162E-17
      1.79390359163506E-14
      5.10000000000000E-01
     -4.12000000000000E+00  -4.12000000000000E+00   0.00000000000000E+00   0.00000000000000E+00  -2.58240160924822E-19
     -3.29157883463203E-17  -3.31740285072451E-17  -1.81602155860382E-14   0.00000000000000E+00   0.00000000000000E+00
      0.00000000000000E+00   0.00000000000000E+00   3.30879501648842E-17   8.60783423606421E-20   3.31740285072449E-17
      1.81602155860380E-14
      5.20000000000000E-01
     -4.24000000000000E+00  -4.24000000000000E+00   0.00000000000000E+00   0.00000000000000E+00  -2.58330702079905E-19
     -3.38789060017670E-17  -3.41372367038469E-17  -1.83787054448595E-14   0.00000000000000E+00   0.00000000000000E+00
      0.00000000000000E+00   0.00000000000000E+00   3.40511280510742E-17   8.61086527742692E-20   3.41372367038484E-17
      1.83787054448592E-14
      5.30000000000000E-01
     -4.36000000000000E+00  -4.36000000000000E+00   0.00000000000000E+00   0.00000000000000E+00  -2.58420543574227E-19
     -3.53320203987284E-17  -3.55904409423026E-17  -1.85944731903297E-14   0.00000000000000E+00   0.00000000000000E+00
      0.00000000000000E+00   0.00000000000000E+00   3.55043022133259E-17   8.61387289770189E-20   3.55904409423029E-17
      1.85944731903297E-14
      5.40000000000000E-01
     -4.48000000000000E+00  -4.48000000000000E+00   0.00000000000000E+00   0.00000000000000E+00  -2.58509567202385E-19
     -3.69876854333046E-17  -3.72461950005070E-17  -1.88075346752470E-14   0.00000000000000E+00   0.00000000000000E+00
      0.00000000000000E+00   0.00000000000000E+00   3.71600264691309E-17   8.61685313766512E-20   3.72461950005075E-17
      1.88075346752471E-14
      5.50000000000000E-01
     -4.60000000000000E+00  -4.60000000000000E+00   0.00000000000000E+00   0.00000000000000E+00  -2.58597616952042E-19
     -3.83747750178953E-17  -3.86333726348473E-17  -1.90179718956165E-14   0.00000000000000E+00   0.00000000000000E+00
      0.00000000000000E+00   0.00000000000000E+00   3.85471746271209E-17   8.61980077271171E-20   3.86333726348480E-17
      1.90179718956163E-14
      5.60000000000000E-01
     -4.72000000000000E+00  -4.72000000000000E+00   0.00000000000000E+00   0.00000000000000E+00  -2.58684555180406E-19
     -3.92354270089515E-17  -3.94941115641319E-17  -1.92259287079753E-14   0.00000000000000E+00   0.00000000000000E+00
      0.00000000000000E+00   0.00000000000000E+00   3.94078844521928E-17   8.62271119384696E-20   3.94941115641312E-17
      1.92259287079754E-14
      5.70000000000000E-01
     -4.84000000000000E+00  -4.84000000000000E+00   0.00000000000000E+00   0.00000000000000E+00  -2.58770309339400E-19
     -3.96599732976586E-17  -3.99187436069980E-17  -1.94315866715416E-14   0.00000000000000E+00   0.00000000000000E+00
      0.00000000000000E+00   0.00000000000000E+00   3.98324877872838E-17   8.62558197133256E-20   3.99187436069972E-17
      1.94315866715415E-14
      5.80000000000000E-01
     -4.96000000000000E+00  -4.96000000000000E+00   0.00000000000000E+00   0.00000000000000E+00  -2.58854894127031E-19
     -3.98489404314104E-17  -4.01077953255374E-17  -1.96351313901377E-14   0.00000000000000E+00   0.00000000000000E+00
      0.00000000000000E+00   0.00000000000000E+00   4.00215111895778E-17   8.62841359595659E-20   4.01077953255373E-17
      1.96351313901378E-14
      5.90000000000000E-01
     -5.08000000000000E+00  -5.08000000000000E+00   0.00000000000000E+00   0.00000000000000E+00  -2.58938405743422E-19
     -3.99431107456641E-17  -4.02020491514075E-17  -1.98367218896680E-14   0.00000000000000E+00   0.00000000000000E+00
      0.00000000000000E+00   0.00000000000000E+00   4.01157370585410E-17   8.63120928674396E-20   4.02020491514084E-17
      1.98367218896683E-14
      6.00000000000000E-01
     -5.20000000000000E+00  -5.20000000000000E+00   0.00000000000000E+00   0.00000000000000E+00  -2.59020995818424E-19
     -4.00203838385014E-17  -4.02794048343198E-17  -2.00364713428853E-14   0.00000000000000E+00   0.00000000000000E+00
      0.00000000000000E+00   0.00000000000000E+00   4.01930650931383E-17   8.63397411813154E-20   4.02794048343196E-17
      2.00364713428850E-14
      6.10000000000000E-01
     -5.32000000000000E+00  -5.32000000000000E+00   0.00000000000000E+00   0.00000000000000E+00  -2.59102836560719E-19
     -4.01351240556865E-17  -4.03942268922472E-17  -2.02344411731294E-14   0.00000000000000E+00   0.00000000000000E+00
      0.00000000000000E+00   0.00000000000000E+00   4.03078597537143E-17   8.63671385322905E-20   4.03942268922466E-17
      2.02344411731296E-14
      6.20000000000000E-01
     -5.44000000000000E+00  -5.44000000000000E+00   0.00000000000000E+00   0.00000000000000E+00  -2.59184086643079E-19
     -4.03517027353794E-17  -4.06108868220225E-17  -2.04306463499840E-14   0.00000000000000E+00   0.00000000000000E+00
      0.00000000000000E+00   0.00000000000000E+00   4.05244924840058E-17   8.63943380171952E-20   4.06108868220230E-17
      2.04306463499841E-14
      6.30000000000000E-01
     -5.56000000000000E+00  -5.56000000000000E+00   0.00000000000000E+00   0.00000000000000E+00  -2.59264863538933E-19
     -4.07678403449509E-17  -4.10271052084898E-17  -2.06250684036320E-14   0.00000000000000E+00   0.00000000000000E+00
      0.00000000000000E+00   0.00000000000000E+00   4.09406838295519E-17   8.64213789373874E-20   4.10271052084893E-17
      2.06250684036319E-14
      6.40000000000000E-01
     -5.68000000000000E+00  -5.68000000000000E+00   0.00000000000000E+00   0.00000000000000E+00  -2.59345225449624E-19
     -4.15090106658613E-17  -4.17683558913110E-17  -2.08176729549656E-14   0.00000000000000E+00   0.00000000000000E+00
      0.00000000000000E+00   0.00000000000000E+00   4.16819076105641E-17   8.64482807477484E-20   4.17683558913119E-17
      2.08176729549659E-14
      6.50000000000000E-01
     -5.80000000000000E+00  -5.80000000000000E+00   0.00000000000000E+00   0.00000000000000E+00  -2.59425164985013E-19
     -4.26482981208221E-17  -4.29077232858071E-17  -2.10084288461551E-14   0.00000000000000E+00   0.00000000000000E+00
      0.00000000000000E+00   0.00000000000000E+00   4.28212482448679E-17   8.64750409390601E-20   4.29077232858070E-17
      2.10084288461552E-14
      6.60000000000000E-01
     -5.92000000000000E+00  -5.92000000000000E+00   0.00000000000000E+00   0.00000000000000E+00  -2.59504616095000E-19
     -4.40756769074376E-17  -4.43351815235326E-17  -2.11973256547651E-14   0.00000000000000E+00   0.00000000000000E+00
      0.00000000000000E+00   0.00000000000000E+00   4.42486798861761E-17   8.65016373573363E-20   4.43351815235334E-17
      2.11973256547650E-14
      6.70000000000000E-01
     -6.04000000000000E+00  -6.04000000000000E+00   0.00000000000000E+00   0.00000000000000E+00  -2.59583473883204E-19
     -4.54914797342951E-17  -4.57510632081783E-17  -2.13843859370778E-14   0.00000000000000E+00   0.00000000000000E+00
      0.00000000000000E+00   0.00000000000000E+00   4.56645351733365E-17   8.65280348414467E-20   4.57510632081780E-17
      2.13843859370775E-14
      6.80000000000000E-01
     -6.16000000000000E+00  -6.16000000000000E+00   0.00000000000000E+00   0.00000000000000E+00  -2.59661623477070E-19
     -4.65916887643509E-17  -4.68513503878279E-17  -2.15696690215650E-14   0.00000000000000E+00   0.00000000000000E+00
      0.00000000000000E+00   0.00000000000000E+00   4.67647961929346E-17   8.65541948940207E-20   4.68513503878286E-17
      2.15696690215650E-14
      6.90000000000000E-01
     -6.28000000000000E+00  -6.28000000000000E+00   0.00000000000000E+00   0.00000000000000E+00  -2.59738970565798E-19
     -4.72730131046421E-17  -4.75327520752079E-17  -2.17532652503407E-14   0.00000000000000E+00   0.00000000000000E+00
      0.00000000000000E+00   0.00000000000000E+00   4.74461719893050E-17   8.65800859033006E-20   4.75327520752083E-17
      2.17532652503408E-14
      7.00000000000000E-01
     -6.40000000000001E+00  -6.40000000000001E+00   0.00000000000000E+00   0.00000000000000E+00  -2.59815465088237E-19
     -4.76303834434642E-17  -4.78901989085524E-17  -2.19352826566564E-14   0.00000000000000E+00   0.00000000000000E+00
      0.00000000000000E+00   0.00000000000000E+00   4.78035932174838E-17   8.66056910689285E-20   4.78901989085527E-17
      2.19352826566563E-14
      7.10000000000000E-01