DF-ISE text

Info {
  version   = 1.0
  type      = xyplot
  datasets  = [
    "time"
    "n OuterVoltage" "n InnerVoltage" "n QuasiFermiPotential" "n DisplacementCurrent" "n eCurrent"
    "n hCurrent" "n TotalCurrent" "n Charge" "p OuterVoltage" "p InnerVoltage"
    "p QuasiFermiPotential" "p DisplacementCurrent" "p eCurrent" "p hCurrent" "p TotalCurrent"
    "p Charge" ]
  functions = [
    Time
    OuterVoltage InnerVoltage QuasiFermiPotential DisplacementCurrent eCurrent
    hCurrent TotalCurrent Charge OuterVoltage InnerVoltage
    QuasiFermiPotential DisplacementCurrent eCurrent hCurrent TotalCurrent
    Charge ]
}

Data {
      0.00000000000000E+00
      0.00000000000000E+00   0.00000000000000E+00   0.00000000000000E+00   0.00000000000000E+00  -1.73729483190407E-22
      1.62053993720971E-25  -1.73567429196686E-22   7.16075864309771E-16   0.00000000000000E+00   0.00000000000000E+00
      0.00000000000000E+00   0.00000000000000E+00   1.73729483197749E-22  -1.62054001137992E-25   1.73567429196611E-22
     -7.16075864309772E-16
      0.00000000000000E+00
      0.00000000000000E+00   0.00000000000000E+00   0.00000000000000E+00   0.00000000000000E+00   2.82436701703553E-21
      3.55225496710680E-27   2.82437056929050E-21   7.16075864304398E-16   0.00000000000000E+00   0.00000000000000E+00
      0.00000000000000E+00   0.00000000000000E+00  -2.82436701703499E-21  -3.55225423141457E-27  -2.82437056928923E-21
     -7.16075864304397E-16
      0.00000000000000E+00
      0.00000000000000E+00   0.00000000000000E+00   0.00000000000000E+00   0.00000000000000E+00   2.84731352021198E-21
     -4.79232107740847E-27   2.84730872789091E-21   7.16075864304398E-16   0.00000000000000E+00   0.00000000000000E+00
      0.00000000000000E+00   0.00000000000000E+00  -2.84731352021602E-21   4.79232167093546E-27  -2.84730872789435E-21
     -7.16075864304397E-16
      2.00000000000000E-02
      0.00000000000000E+00   0.00000000000000E+00   0.00000000000000E+00   0.00000000000000E+00  -3.40001482598132E-18
      1.74804269333974E-24  -3.40001307793863E-18   6.93894969397033E-16   4.00000000000000E-02   4.00000000000000E-02
      0.00000000000000E+00   0.00000000000000E+00   2.91980842316402E-18   4.80204654774614E-19   3.40001307793863E-18
     -6.93894969397034E-16
      4.00000000000000E-02
      0.00000000000000E+00   0.00000000000000E+00   0.00000000000000E+00   0.00000000000000E+00  -1.97643000741432E-17
      2.95172298479421E-23  -1.97642705569134E-17   6.71227552397592E-16   8.00000000000000E-02   8.00000000000000E-02
      0.00000000000000E+00   0.00000000000000E+00   1.70429656768641E-17   2.72130488004928E-18   1.97642705569134E-17
     -6.71227552397593E-16
      6.00000000000000E-02
      0.00000000000000E+00   0.00000000000000E+00   0.00000000000000E+00   0.00000000000000E+00  -9.30651363078757E-17
     -3.78158683584094E-26  -9.30651363456915E-17   6.47991602887431E-16   1.20000000000000E-01   1.20000000000000E-01
      0.00000000000000E+00   0.00000000000000E+00   7.98783778147129E-17   1.31867585309786E-17   9.30651363456915E-17
     -6.47991602887430E-16
      8.00000000000000E-02
      0.00000000000000E+00   0.00000000000000E+00   0.00000000000000E+00   0.00000000000000E+00  -4.39111811700862E-16
     -2.15132011630989E-26  -4.39111811722375E-16   6.24092079074691E-16   1.60000000000000E-01   1.60000000000000E-01
      0.00000000000000E+00   0.00000000000000E+00   3.77069086158456E-16   6.20427255639201E-17   4.39111811722376E-16
     -6.24092079074690E-16
      1.00000000000000E-01
      0.00000000000000E+00   0.00000000000000E+00   0.00000000000000E+00   0.00000000000000E+00  -2.05924584456350E-15
      7.35480994979136E-26  -2.05924584448996E-15   5.99428571276539E-16   2.00000000000000E-01   2.00000000000000E-01
      0.00000000000000E+00   0.00000000000000E+00   1.76916318616906E-15   2.90082658320894E-16   2.05924584448995E-15
     -5.99428571276539E-16
      1.20000000000000E-01
      0.00000000000000E+00   0.00000000000000E+00   0.00000000000000E+00   0.00000000000000E+00  -9.64295532936714E-15
     -3.31282601064237E-25  -9.64295532969842E-15   5.73908042054733E-16   2.40000000000000E-01   2.40000000000000E-01
      0.00000000000000E+00   0.00000000000000E+00   8.28872320456214E-15   1.35423212513628E-15   9.64295532969842E-15
     -5.73908042054734E-16
      1.40000000000000E-01
      0.00000000000000E+00   0.00000000000000E+00   0.00000000000000E+00   0.00000000000000E+00  -4.51356608465378E-14
      2.29792227868596E-25  -4.51356608463080E-14   5.47456788073972E-16   2.80000000000000E-01   2.80000000000000E-01
      0.00000000000000E+00   0.00000000000000E+00   3.88170582410250E-14   6.31860260528299E-15   4.51356608463080E-14
     -5.47456788073972E-16
      1.60000000000000E-01
      0.00000000000000E+00   0.00000000000000E+00   0.00000000000000E+00   0.00000000000000E+00  -2.11214660919234E-13
     -2.90189982545936E-24  -2.11214660922136E-13   5.20022989578333E-16   3.20000000000000E-01   3.20000000000000E-01
      0.00000000000000E+00   0.00000000000000E+00   1.81743836890239E-13   2.94708240318969E-14   2.11214660922136E-13
     -5.20022989578333E-16
      1.80000000000000E-01
      0.00000000000000E+00   0.00000000000000E+00   0.00000000000000E+00   0.00000000000000E+00  -9.88184602006575E-13
      4.91208825225014E-25  -9.88184602006084E-13   4.91566198434087E-16   3.60000000000000E-01   3.60000000000000E-01
      0.00000000000000E+00   0.00000000000000E+00   8.50769794631867E-13   1.37414807374217E-13   9.88184602006084E-13
     -4.91566198434087E-16
      2.00000000000000E-01
      0.00000000000000E+00   0.00000000000000E+00   0.00000000000000E+00   0.00000000000000E+00  -4.62232018251374E-12
     -4.42011862823016E-24  -4.62232018251816E-12   4.62037754725280E-16   4.00000000000000E-01   4.00000000000000E-01
      0.00000000000000E+00   0.00000000000000E+00   3.98175886594485E-12   6.40561316573312E-13   4.62232018251817E-12
     -4.62037754725280E-16
      2.20000000000000E-01
      0.00000000000000E+00   0.00000000000000E+00   0.00000000000000E+00   0.00000000000000E+00  -2.16162416679530E-11
     -5.93762928862948E-23  -2.16162416680124E-11   4.31357545661076E-16   4.40000000000000E-01   4.40000000000000E-01
      0.00000000000000E+00   0.00000000000000E+00   1.86309736282385E-11   2.98526803977390E-12   2.16162416680124E-11
     -4.31357545661076E-16
      2.40000000000000E-01
      0.00000000000000E+00   0.00000000000000E+00   0.00000000000000E+00   0.00000000000000E+00  -1.01060314894182E-10
      2.34489749950542E-22  -1.01060314893947E-10   3.99388486094313E-16   4.80000000000000E-01   4.80000000000000E-01
      0.00000000000000E+00   0.00000000000000E+00   8.71511822798572E-11   1.39091326140903E-11   1.01060314893947E-10
     -3.99388486094313E-16
      2.60000000000000E-01
      0.00000000000000E+00   0.00000000000000E+00   0.00000000000000E+00   0.00000000000000E+00  -4.72313118044608E-10
      3.17508734139199E-22  -4.72313118044291E-10   3.65908055790033E-16   5.20000000000000E-01   5.20000000000000E-01
      0.00000000000000E+00   0.00000000000000E+00   4.07525765288915E-10   6.47873527553754E-11   4.72313118044291E-10
     -3.65908055790032E-16
      2.80000000000000E-01
      0.00000000000000E+00   0.00000000000000E+00   0.00000000000000E+00   0.00000000000000E+00  -2.20632405075289E-09
     -3.52548094977084E-22  -2.20632405075324E-09   3.30582165847446E-16   5.60000000000000E-01   5.60000000000000E-01
      0.00000000000000E+00   0.00000000000000E+00   1.90467772648448E-09   3.01646324268757E-10   2.20632405075324E-09
     -3.30582165847446E-16
      3.00000000000000E-01
      0.00000000000000E+00   0.00000000000000E+00   0.00000000000000E+00   0.00000000000000E+00  -1.02982853637593E-08
      7.01306588735062E-22  -1.02982853637586E-08   2.92964642902122E-16   6.00000000000000E-01   6.00000000000000E-01
      0.00000000000000E+00   0.00000000000000E+00   8.89484480259073E-09   1.40344056116788E-09   1.02982853637586E-08
     -2.92964642902122E-16
      3.20000000000000E-01
      0.00000000000000E+00   0.00000000000000E+00   0.00000000000000E+00   0.00000000000000E+00  -4.79871625100016E-08
      2.43027269630912E-21  -4.79871625099991E-08   2.52576471938876E-16   6.40000000000000E-01   6.40000000000000E-01
      0.00000000000000E+00   0.00000000000000E+00   4.14671111464235E-08   6.52005136357560E-09   4.79871625099991E-08
     -2.52576471938876E-16
      3.40000000000000E-01
      0.00000000000000E+00   0.00000000000000E+00   0.00000000000000E+00   0.00000000000000E+00  -2.22504165080623E-07
      1.66853568022456E-20  -2.22504165080606E-07   2.09167529254159E-16   6.80000000000000E-01   6.80000000000000E-01
      0.00000000000000E+00   0.00000000000000E+00   1.92328899261012E-07   3.01752658195936E-08   2.22504165080606E-07
     -2.09167529254159E-16
      3.60000000000000E-01
      0.00000000000000E+00   0.00000000000000E+00   0.00000000000000E+00   0.00000000000000E+00  -1.01377831947586E-06
      8.46011671684503E-20  -1.01377831947577E-06   1.63385467781587E-16   7.20000000000000E-01   7.20000000000000E-01
      0.00000000000000E+00   0.00000000000000E+00   8.75825566974729E-07   1.37952752501043E-07   1.01377831947577E-06
     -1.63385467781587E-16
      3.80000000000000E-01
      0.00000000000000E+00   0.00000000000000E+00   0.00000000000000E+00   0.00000000000000E+00  -4.34776986652171E-06
      9.58834282486814E-18  -4.34776986651212E-06   1.18106868563056E-16   7.60000000000000E-01   7.60000000000000E-01
      0.00000000000000E+00   0.00000000000000E+00   3.74234455582830E-06   6.05425310683816E-07   4.34776986651212E-06
     -1.18106868563056E-16
      4.00000000000000E-01
      0.00000000000000E+00   0.00000000000000E+00   0.00000000000000E+00   0.00000000000000E+00  -1.59871929791940E-05
     -1.17282482134556E-14  -1.59871929909222E-05   7.90101473068816E-17   8.00000000000000E-01   8.00000000000000E-01
      0.00000000000000E+00   0.00000000000000E+00   1.36052352972924E-05   2.38195769362984E-06   1.59871929909222E-05
     -7.90101473068815E-17
      4.20000000000000E-01
      0.00000000000000E+00   0.00000000000000E+00   0.00000000000000E+00   0.00000000000000E+00  -4.64047560270223E-05
     -5.58018315411746E-19  -4.64047560270229E-05   5.08245218321886E-17   8.40000000000000E-01   8.40000000000000E-01
      0.00000000000000E+00   0.00000000000000E+00   3.86891729137397E-05   7.71558311328321E-06   4.64047560270229E-05
     -5.08245218321886E-17
      4.40000000000000E-01
      0.00000000000000E+00   0.00000000000000E+00   0.00000000000000E+00   0.00000000000000E+00  -1.06437529454000E-04
      2.52198702006592E-19  -1.06437529453999E-04   3.30958902839272E-17   8.80000000000000E-01   8.80000000000000E-01
      0.00000000000000E+00   0.00000000000000E+00   8.65989374637715E-05   1.98385919902279E-05   1.06437529453999E-04
     -3.30958902839272E-17
      4.60000000000000E-01
      0.00000000000000E+00   0.00000000000000E+00   0.00000000000000E+00   0.00000000000000E+00  -2.02468089400711E-04
      6.22588474518671E-15  -2.02468089394486E-04   2.22924653442308E-17   9.20000000000000E-01   9.20000000000000E-01
      0.00000000000000E+00   0.00000000000000E+00   1.61004702396201E-04   4.14633869982846E-05   2.02468089394485E-04
     -2.22924653442308E-17
      4.80000000000000E-01
      0.00000000000000E+00   0.00000000000000E+00   0.00000000000000E+00   0.00000000000000E+00  -3.35427962740171E-04
      1.93168693899331E-15  -3.35427962738240E-04   1.53747149044931E-17   9.60000000000000E-01   9.60000000000000E-01
      0.00000000000000E+00   0.00000000000000E+00   2.61691471918985E-04   7.37364908192547E-05   3.35427962738239E-04
     -1.53747149044932E-17
      5.00000000000000E-01
      0.00000000000000E+00   0.00000000000000E+00   0.00000000000000E+00   0.00000000000000E+00  -5.02071934979041E-04
      2.13194586994582E-16  -5.02071934978827E-04   1.05875029591644E-17   1.00000000000000E+00   1.00000000000000E+00
      0.00000000000000E+00   0.00000000000000E+00   3.85798406891993E-04   1.16273528086834E-04   5.02071934978827E-04
     -1.05875029591644E-17
      5.20000000000000E-01
      0.00000000000000E+00   0.00000000000000E+00   0.00000000000000E+00   0.00000000000000E+00  -6.96672800130051E-04
     -1.05346668862738E-17  -6.96672800130062E-04   7.02218359111908E-18   1.04000000000000E+00   1.04000000000000E+00
      0.00000000000000E+00   0.00000000000000E+00   5.29000524353480E-04   1.67672275776582E-04   6.96672800130062E-04
     -7.02218359111907E-18
      5.40000000000000E-01
      0.00000000000000E+00   0.00000000000000E+00   0.00000000000000E+00   0.00000000000000E+00  -9.12540771813241E-04
     -4.41785986315155E-18  -9.12540771813246E-04   4.20599798560054E-18   1.08000000000000E+00   1.08000000000000E+00
      0.00000000000000E+00   0.00000000000000E+00   6.86482719025431E-04   2.26058052787815E-04   9.12540771813246E-04
     -4.20599798560055E-18
      5.60000000000000E-01
      0.00000000000000E+00   0.00000000000000E+00   0.00000000000000E+00   0.00000000000000E+00  -1.14322127367425E-03
     -3.02074375581802E-18  -1.14322127367426E-03   1.88076253395900E-18   1.12000000000000E+00   1.12000000000000E+00
      0.00000000000000E+00   0.00000000000000E+00   8.53701492235375E-04   2.89519781438882E-04   1.14322127367426E-03
     -1.88076253395896E-18
      5.80000000000000E-01
      0.00000000000000E+00   0.00000000000000E+00   0.00000000000000E+00   0.00000000000000E+00  -1.38329698755427E-03
     -6.28436805087800E-19  -1.38329698755427E-03  -1.04017107969859E-19   1.16000000000000E+00   1.16000000000000E+00
      0.00000000000000E+00   0.00000000000000E+00   1.02689565130732E-03   3.56401336246957E-04   1.38329698755427E-03
      1.04017107969831E-19
      6.00000000000000E-01
      0.00000000000000E+00   0.00000000000000E+00   0.00000000000000E+00   0.00000000000000E+00  -1.62875416225029E-03
     -8.25749592887278E-19  -1.62875416225029E-03  -1.84236655119792E-18   1.20000000000000E+00   1.20000000000000E+00
      0.00000000000000E+00   0.00000000000000E+00   1.20331187970978E-03   4.25442282540510E-04   1.62875416225029E-03
      1.84236655119796E-18
      6.20000000000000E-01
      0.00000000000000E+00   0.00000000000000E+00   0.00000000000000E+00   0.00000000000000E+00  -1.87695513876033E-03
     -4.62136632590437E-18  -1.87695513876033E-03  -3.39680216302453E-18   1.24000000000000E+00   1.24000000000000E+00
      0.00000000000000E+00   0.00000000000000E+00   1.38116764125205E-03   4.95787497508282E-04   1.87695513876033E-03
      3.39680216302451E-18
      6.40000000000000E-01
      0.00000000000000E+00   0.00000000000000E+00   0.00000000000000E+00   0.00000000000000E+00  -2.12635487491848E-03
      6.48566248686177E-19  -2.12635487491848E-03  -4.81083976953701E-18   1.28000000000000E+00   1.28000000000000E+00
      0.00000000000000E+00   0.00000000000000E+00   1.55944309901953E-03   5.66911775898949E-04   2.12635487491848E-03
      4.81083976953699E-18
      6.60000000000000E-01
      0.00000000000000E+00   0.00000000000000E+00   0.00000000000000E+00   0.00000000000000E+00  -2.37613621294142E-03
     -4.38556427232338E-18  -2.37613621294142E-03  -6.11562685577935E-18   1.32000000000000E+00   1.32000000000000E+00
      0.00000000000000E+00   0.00000000000000E+00   1.73762131468697E-03   6.38514898254450E-04   2.37613621294142E-03
      6.11562685577937E-18
      6.80000000000000E-01
      0.00000000000000E+00   0.00000000000000E+00   0.00000000000000E+00   0.00000000000000E+00  -2.62589495791404E-03
     -3.10300256339281E-13  -2.62589495822434E-03  -7.33381044417167E-18   1.36000000000000E+00   1.36000000000000E+00
      0.00000000000000E+00   0.00000000000000E+00   1.91546642169051E-03   7.10428536533833E-04   2.62589495822434E-03
      7.33381044417167E-18
      7.00000000000000E-01
      0.00000000000000E+00   0.00000000000000E+00   0.00000000000000E+00   0.00000000000000E+00  -2.87542727722511E-03
     -1.38399307271587E-13  -2.87542727736351E-03  -8.48204044114445E-18   1.40000000000000E+00   1.40000000000000E+00
      0.00000000000000E+00   0.00000000000000E+00   2.09287509205629E-03   7.82552185307220E-04   2.87542727736351E-03
      8.48204044114459E-18
      7.20000000000000E-01
      0.00000000000000E+00   0.00000000000000E+00   0.00000000000000E+00   0.00000000000000E+00  -3.12461221458143E-03
     -6.54147758503349E-14  -3.12461221464684E-03  -9.57270472889399E-18   1.44000000000000E+00   1.44000000000000E+00
      0.00000000000000E+00   0.00000000000000E+00   2.26979530480196E-03   8.54816909844881E-04   3.12461221464684E-03
      9.57270472889398E-18
      7.40000000000000E-01
      0.00000000000000E+00   0.00000000000000E+00   0.00000000000000E+00   0.00000000000000E+00  -3.37335851839754E-03
     -3.26569072622709E-14  -3.37335851843020E-03  -1.06151599351974E-17   1.48000000000000E+00   1.48000000000000E+00
      0.00000000000000E+00   0.00000000000000E+00   2.44619029953609E-03   9.27168218894104E-04   3.37335851843019E-03
      1.06151599351974E-17
      7.60000000000000E-01
      0.00000000000000E+00   0.00000000000000E+00   0.00000000000000E+00   0.00000000000000E+00  -3.62158622085309E-03
     -1.71503854870220E-14  -3.62158622087024E-03  -1.16166015663946E-17   1.52000000000000E+00   1.52000000000000E+00
      0.00000000000000E+00   0.00000000000000E+00   2.62202676379252E-03   9.99559457077723E-04   3.62158622087024E-03
      1.16166015663946E-17
      7.80000000000000E-01
      0.00000000000000E+00   0.00000000000000E+00   0.00000000000000E+00   0.00000000000000E+00  -3.86922324501753E-03
     -9.40706013883346E-15  -3.86922324502693E-03  -1.25826723590825E-17   1.56000000000000E+00   1.56000000000000E+00
      0.00000000000000E+00   0.00000000000000E+00   2.79727335724403E-03   1.07194988778290E-03   3.86922324502693E-03
      1.25826723590824E-17
      8.00000000000000E-01
      0.00000000000000E+00   0.00000000000000E+00   0.00000000000000E+00   0.00000000000000E+00  -4.11620662052614E-03
     -5.36556114624881E-15  -4.11620662053151E-03  -1.35178841290387E-17   1.60000000000000E+00   1.60000000000000E+00
      0.00000000000000E+00   0.00000000000000E+00   2.97190227511217E-03   1.14430434541933E-03   4.11620662053151E-03
      1.35178841290388E-17
      8.20000000000000E-01
      0.00000000000000E+00   0.00000000000000E+00   0.00000000000000E+00   0.00000000000000E+00  -4.36248391147029E-03
     -3.15468020706273E-15  -4.36248391147344E-03  -1.44259099533788E-17   1.64000000000000E+00   1.64000000000000E+00
      0.00000000000000E+00   0.00000000000000E+00   3.14589080059047E-03   1.21659311088297E-03   4.36248391147344E-03
      1.44259099533788E-17
      8.40000000000000E-01
      0.00000000000000E+00   0.00000000000000E+00   0.00000000000000E+00   0.00000000000000E+00  -4.60801358206780E-03
     -1.91043461530630E-15  -4.60801358206971E-03  -1.53097879165298E-17   1.68000000000000E+00   1.68000000000000E+00
      0.00000000000000E+00   0.00000000000000E+00   3.31922198771484E-03   1.28879159435487E-03   4.60801358206971E-03
      1.53097879165298E-17
      8.60000000000000E-01
      0.00000000000000E+00   0.00000000000000E+00   0.00000000000000E+00   0.00000000000000E+00  -4.85276432850245E-03
     -1.19545270528467E-15  -4.85276432850364E-03  -1.61720651686912E-17   1.72000000000000E+00   1.72000000000000E+00
      0.00000000000000E+00   0.00000000000000E+00   3.49188452448840E-03   1.36087980401524E-03   4.85276432850365E-03
      1.61720651686913E-17
      8.80000000000000E-01
      0.00000000000000E+00   0.00000000000000E+00   0.00000000000000E+00   0.00000000000000E+00  -5.09671378102772E-03
     -7.57315678327749E-16  -5.09671378102847E-03  -1.70149017469945E-17   1.76000000000000E+00   1.76000000000000E+00
      0.00000000000000E+00   0.00000000000000E+00   3.66387208292447E-03   1.43284169810400E-03   5.09671378102848E-03
      1.70149017469946E-17
      9.00000000000000E-01
      0.00000000000000E+00   0.00000000000000E+00   0.00000000000000E+00   0.00000000000000E+00  -5.33984696968549E-03
     -4.91694619089223E-16  -5.33984696968598E-03  -1.78401470651989E-17   1.80000000000000E+00   1.80000000000000E+00
      0.00000000000000E+00   0.00000000000000E+00   3.83518244932874E-03   1.50466452035724E-03   5.33984696968599E-03
      1.78401470651989E-17
      9.20000000000000E-01
      0.00000000000000E+00   0.00000000000000E+00   0.00000000000000E+00   0.00000000000000E+00  -5.58215482201835E-03
     -3.21243799562410E-16  -5.58215482201867E-03  -1.86493975567749E-17   1.84000000000000E+00   1.84000000000000E+00
      0.00000000000000E+00   0.00000000000000E+00   4.00581663596739E-03   1.57633818605128E-03   5.58215482201867E-03
      1.86493975567748E-17
      9.40000000000001E-01
      0.00000000000000E+00   0.00000000000000E+00   0.00000000000000E+00   0.00000000000000E+00  -5.82363283603632E-03
     -2.19233973080788E-16  -5.82363283603654E-03  -1.94440410515936E-17   1.88000000000000E+00   1.88000000000000E+00
      0.00000000000000E+00   0.00000000000000E+00   4.17577808414710E-03   1.64785475188944E-03   5.82363283603654E-03
      1.94440410515937E-17
      9.60000000000001E-01
      0.00000000000000E+00   0.00000000000000E+00   0.00000000000000E+00   0.00000000000000E+00  -6.06427998147391E-03
     -1.48190751744484E-16  -6.06427998147406E-03  -2.02252915898026E-17   1.92000000000000E+00   1.92000000000000E+00
      0.00000000000000E+00   0.00000000000000E+00   4.34507200298781E-03   1.71920797848625E-03   6.06427998147406E-03
      2.02252915898026E-17
      9.80000000000001E-01
      0.00000000000000E+00   0.00000000000000E+00   0.00000000000000E+00   0.00000000000000E+00  -6.30409782864773E-03
     -9.70628498153137E-17  -6.30409782864782E-03  -2.09942171723919E-17   1.96000000000000E+00   1.96000000000000E+00
      0.00000000000000E+00   0.00000000000000E+00   4.51370484869486E-03   1.79039297995296E-03   6.30409782864782E-03
      2.09942171723919E-17
      1.00000000000000E+00
      0.00000000000000E+00   0.00000000000000E+00   0.00000000000000E+00   0.00000000000000E+00  -6.54308987788097E-03
     -7.31756151416702E-17  -6.54308987788104E-03  -2.17517621735868E-17   2.00000000000000E+00   2.00000000000000E+00
      0.00000000000000E+00   0.00000000000000E+00   4.68168392935382E-03   1.86140594852723E-03   6.54308987788104E-03
      2.17517621735868E-17
}
