DF-ISE text

Info {
  version   = 1.0
  type      = xyplot
  datasets  = [
    "time"
    "n OuterVoltage" "n InnerVoltage" "n QuasiFermiPotential" "n DisplacementCurrent" "n eCurrent"
    "n hCurrent" "n TotalCurrent" "n Charge" "p OuterVoltage" "p InnerVoltage"
    "p QuasiFermiPotential" "p DisplacementCurrent" "p eCurrent" "p hCurrent" "p TotalCurrent"
    "p Charge" ]
  functions = [
    Time
    OuterVoltage InnerVoltage QuasiFermiPotential DisplacementCurrent eCurrent
    hCurrent TotalCurrent Charge OuterVoltage InnerVoltage
    QuasiFermiPotential DisplacementCurrent eCurrent hCurrent TotalCurrent
    Charge ]
}

Data {
      0.00000000000000E+00
      0.00000000000000E+00   0.00000000000000E+00   0.00000000000000E+00   0.00000000000000E+00  -6.54308987788074E-03
      6.54317518285713E-18  -6.54308987788073E-03  -2.17517621735860E-17   2.00000000000000E+00   2.00000000000000E+00
      0.00000000000000E+00   0.00000000000000E+00   4.68168392935360E-03   1.86140594852713E-03   6.54308987788074E-03
      2.17517621735860E-17
      2.00000000000000E-02
      0.00000000000000E+00   0.00000000000000E+00   0.00000000000000E+00   0.00000000000000E+00  -5.70299769330764E-03
     -8.03406352898433E-16  -5.70299769330844E-03  -1.90484655829055E-17   1.86000000000000E+00   1.86000000000000E+00
      0.00000000000000E+00   0.00000000000000E+00   4.09088116146457E-03   1.61211653184388E-03   5.70299769330844E-03
      1.90484655829056E-17
      4.00000000000000E-02
      0.00000000000000E+00   0.00000000000000E+00   0.00000000000000E+00   0.00000000000000E+00  -4.85276432855160E-03
     -1.98170647172945E-14  -4.85276432857141E-03  -1.61720651689181E-17   1.72000000000000E+00   1.72000000000000E+00
      0.00000000000000E+00   0.00000000000000E+00   3.49188452453593E-03   1.36087980403549E-03   4.85276432857142E-03
      1.61720651689182E-17
      6.00000000000000E-02
      0.00000000000000E+00   0.00000000000000E+00   0.00000000000000E+00   0.00000000000000E+00  -3.99280017311123E-03
      4.31654903712894E-18  -3.99280017311122E-03  -1.30538891342534E-17   1.58000000000000E+00   1.58000000000000E+00
      0.00000000000000E+00   0.00000000000000E+00   2.88466657728785E-03   1.10813359582337E-03   3.99280017311122E-03
      1.30538891342535E-17
      8.00000000000000E-02
      0.00000000000000E+00   0.00000000000000E+00   0.00000000000000E+00   0.00000000000000E+00  -3.12461221443209E-03
      6.04325713305128E-19  -3.12461221443209E-03  -9.57270472787955E-18   1.44000000000000E+00   1.44000000000000E+00
      0.00000000000000E+00   0.00000000000000E+00   2.26979530465370E-03   8.54816909778391E-04   3.12461221443209E-03
      9.57270472787965E-18
      1.00000000000000E-01
      0.00000000000000E+00   0.00000000000000E+00   0.00000000000000E+00   0.00000000000000E+00  -2.25122976761855E-03
     -1.69566008819192E-16  -2.25122976761872E-03  -5.47530897607929E-18   1.30000000000000E+00   1.30000000000000E+00
      0.00000000000000E+00   0.00000000000000E+00   1.64856357747190E-03   6.02666190146813E-04   2.25122976761872E-03
      5.47530897607924E-18
      1.20000000000000E-01
      0.00000000000000E+00   0.00000000000000E+00   0.00000000000000E+00   0.00000000000000E+00  -1.38329698761327E-03
     -2.96066256493977E-14  -1.38329698764287E-03  -1.04017108633420E-19   1.16000000000000E+00   1.16000000000000E+00
      0.00000000000000E+00   0.00000000000000E+00   1.02689565136632E-03   3.56401336276548E-04   1.38329698764287E-03
      1.04017108633432E-19
      1.40000000000000E-01
      0.00000000000000E+00   0.00000000000000E+00   0.00000000000000E+00   0.00000000000000E+00  -5.96289112545763E-04
      4.79346200853665E-19  -5.96289112545763E-04   8.68852242132770E-18   1.02000000000000E+00   1.02000000000000E+00
      0.00000000000000E+00   0.00000000000000E+00   4.55312055578576E-04   1.40977056967187E-04   5.96289112545763E-04
     -8.68852242132764E-18
      1.60000000000000E-01
      0.00000000000000E+00   0.00000000000000E+00   0.00000000000000E+00   0.00000000000000E+00  -1.06437529452386E-04
      1.05840805227576E-15  -1.06437529451328E-04   3.30958902840096E-17   8.80000000000000E-01   8.80000000000000E-01
      0.00000000000000E+00   0.00000000000000E+00   8.65989374621532E-05   1.98385919891745E-05   1.06437529451328E-04
     -3.30958902840096E-17
      1.80000000000000E-01
      0.00000000000000E+00   0.00000000000000E+00   0.00000000000000E+00   0.00000000000000E+00  -2.12551395679388E-06
     -1.57373607596688E-20  -2.12551395679389E-06   1.40376755506790E-16   7.40000000000000E-01   7.40000000000000E-01
      0.00000000000000E+00   0.00000000000000E+00   1.83409430108697E-06   2.91419655706926E-07   2.12551395679389E-06
     -1.40376755506790E-16
      2.00000000000000E-01
      0.00000000000000E+00   0.00000000000000E+00   0.00000000000000E+00   0.00000000000000E+00  -1.02982853637643E-08
     -1.05629712431083E-21  -1.02982853637653E-08   2.92964642902122E-16   6.00000000000000E-01   6.00000000000000E-01
      0.00000000000000E+00   0.00000000000000E+00   8.89484480259568E-09   1.40344056116964E-09   1.02982853637653E-08
     -2.92964642902122E-16
      2.20000000000000E-01
      0.00000000000000E+00   0.00000000000000E+00   0.00000000000000E+00   0.00000000000000E+00  -4.67408849884948E-11
     -1.03841829247375E-23  -4.67408849885051E-11   4.15545679524489E-16   4.60000000000000E-01   4.60000000000000E-01
      0.00000000000000E+00   0.00000000000000E+00   4.02968834880916E-11   6.44400150041356E-12   4.67408849885051E-11
     -4.15545679524488E-16
      2.40000000000000E-01
      0.00000000000000E+00   0.00000000000000E+00   0.00000000000000E+00   0.00000000000000E+00  -2.11214628825915E-13
      4.32182004533851E-24  -2.11214628821593E-13   5.20022989578333E-16   3.20000000000000E-01   3.20000000000000E-01
      0.00000000000000E+00   0.00000000000000E+00   1.81743804796920E-13   2.94708240246734E-14   2.11214628821593E-13
     -5.20022989578334E-16
      2.60000000000000E-01
      0.00000000000000E+00   0.00000000000000E+00   0.00000000000000E+00   0.00000000000000E+00  -9.51214320087229E-16
      3.79889480714331E-25  -9.51214319707340E-16   6.11861976720281E-16   1.80000000000000E-01   1.80000000000000E-01
      0.00000000000000E+00   0.00000000000000E+00   8.17015718483816E-16   1.34198601223524E-16   9.51214319707340E-16
     -6.11861976720282E-16
      2.80000000000000E-01
      0.00000000000000E+00   0.00000000000000E+00   0.00000000000000E+00   0.00000000000000E+00  -3.37404564566611E-18
     -8.90837606162361E-27  -3.37404565457448E-18   6.93894969397036E-16   4.00000000000003E-02   4.00000000000003E-02
      0.00000000000000E+00   0.00000000000000E+00   2.89383924284818E-18   4.80206411726300E-19   3.37404565457448E-18
     -6.93894969397038E-16
      3.00000000000000E-01
      0.00000000000000E+00   0.00000000000000E+00   0.00000000000000E+00   0.00000000000000E+00   8.98205346593476E-19
      5.59187152228864E-24   8.98210938464998E-19   7.69804261400779E-16  -1.00000000000000E-01  -1.00000000000000E-01
      0.00000000000000E+00   0.00000000000000E+00  -7.68627748856676E-19  -1.29583189608321E-19  -8.98210938464997E-19
     -7.69804261400779E-16
      3.20000000000000E-01
      0.00000000000000E+00   0.00000000000000E+00   0.00000000000000E+00   0.00000000000000E+00   9.29869065025776E-19
     -1.03961885624608E-25   9.29868961063890E-19   8.41838203199837E-16  -2.40000000000000E-01  -2.40000000000000E-01
      0.00000000000000E+00   0.00000000000000E+00  -7.94990332137098E-19  -1.34878628926794E-19  -9.29868961063893E-19
     -8.41838203199838E-16
      3.40000000000000E-01
      0.00000000000000E+00   0.00000000000000E+00   0.00000000000000E+00   0.00000000000000E+00   9.38056823142643E-19
     -4.68470072525220E-27   9.38056818457942E-19   9.10962249757673E-16  -3.80000000000000E-01  -3.80000000000000E-01
      0.00000000000000E+00   0.00000000000000E+00  -8.00556306977760E-19  -1.37500511480182E-19  -9.38056818457942E-19
     -9.10962249757675E-16
      3.60000000000000E-01
      0.00000000000000E+00   0.00000000000000E+00   0.00000000000000E+00   0.00000000000000E+00   9.45804318926606E-19
     -1.09708380262114E-25   9.45804209218226E-19   9.77571230512674E-16  -5.20000000000000E-01  -5.20000000000000E-01
      0.00000000000000E+00   0.00000000000000E+00  -8.05636686017200E-19  -1.40167523201025E-19  -9.45804209218225E-19
     -9.77571230512672E-16
      3.80000000000000E-01
      0.00000000000000E+00   0.00000000000000E+00   0.00000000000000E+00   0.00000000000000E+00   9.52867178139024E-19
      1.36118114248415E-25   9.52867314257138E-19   1.04180727651456E-15  -6.60000000000001E-01  -6.60000000000001E-01
      0.00000000000000E+00   0.00000000000000E+00  -8.09991056091878E-19  -1.42876258165259E-19  -9.52867314257137E-19
     -1.04180727651456E-15
      4.00000000000000E-01
      0.00000000000000E+00   0.00000000000000E+00   0.00000000000000E+00   0.00000000000000E+00   9.60566386339958E-19
     -1.17865816684760E-25   9.60566268474141E-19   1.10371996283652E-15  -8.00000000000001E-01  -8.00000000000001E-01
      0.00000000000000E+00   0.00000000000000E+00  -8.14961084794525E-19  -1.45605183679613E-19  -9.60566268474138E-19
     -1.10371996283652E-15
      4.20000000000000E-01
      0.00000000000000E+00   0.00000000000000E+00   0.00000000000000E+00   0.00000000000000E+00   9.68616866924521E-19
     -5.55343007583870E-26   9.68616811390220E-19   1.16342774859870E-15  -9.40000000000001E-01  -9.40000000000001E-01
      0.00000000000000E+00   0.00000000000000E+00  -8.20269566728084E-19  -1.48347244662135E-19  -9.68616811390219E-19
     -1.16342774859870E-15
      4.40000000000000E-01
      0.00000000000000E+00   0.00000000000000E+00   0.00000000000000E+00   0.00000000000000E+00   9.75875251563099E-19
     -9.65434411865062E-28   9.75875250597664E-19   1.22120357233310E-15  -1.08000000000000E+00  -1.08000000000000E+00
      0.00000000000000E+00   0.00000000000000E+00  -8.24757289515444E-19  -1.51117961082217E-19  -9.75875250597661E-19
     -1.22120357233310E-15
      4.60000000000000E-01
      0.00000000000000E+00   0.00000000000000E+00   0.00000000000000E+00   0.00000000000000E+00   9.82894478093303E-19
      1.22833478684732E-27   9.82894479321638E-19   1.27737764663497E-15  -1.22000000000000E+00  -1.22000000000000E+00
      0.00000000000000E+00   0.00000000000000E+00  -8.28949267177559E-19  -1.53945212144076E-19  -9.82894479321635E-19
     -1.27737764663497E-15
      4.80000000000000E-01
      0.00000000000000E+00   0.00000000000000E+00   0.00000000000000E+00   0.00000000000000E+00   9.89852218335969E-19
      2.83190811878139E-27   9.89852221167877E-19   1.33221822541649E-15  -1.36000000000000E+00  -1.36000000000000E+00
      0.00000000000000E+00   0.00000000000000E+00  -8.32998194313436E-19  -1.56854026854441E-19  -9.89852221167877E-19
     -1.33221822541649E-15
      5.00000000000000E-01
      0.00000000000000E+00   0.00000000000000E+00   0.00000000000000E+00   0.00000000000000E+00   9.96783294329762E-19
     -1.07954433779637E-26   9.96783283534319E-19   1.38590874372897E-15  -1.50000000000000E+00  -1.50000000000000E+00
      0.00000000000000E+00   0.00000000000000E+00  -8.36920574039494E-19  -1.59862709494825E-19  -9.96783283534320E-19
     -1.38590874372897E-15
      5.20000000000000E-01
      0.00000000000000E+00   0.00000000000000E+00   0.00000000000000E+00   0.00000000000000E+00   1.00372814036529E-18
     -2.02676624109947E-26   1.00372812009763E-18   1.43857039905677E-15  -1.64000000000000E+00  -1.64000000000000E+00
      0.00000000000000E+00   0.00000000000000E+00  -8.40743549005666E-19  -1.62984571091958E-19  -1.00372812009762E-18
     -1.43857039905677E-15
      5.40000000000000E-01
      0.00000000000000E+00   0.00000000000000E+00   0.00000000000000E+00   0.00000000000000E+00   1.01069793486549E-18
     -1.13126084870867E-27   1.01069793373423E-18   1.49028465474201E-15  -1.78000000000000E+00  -1.78000000000000E+00
      0.00000000000000E+00   0.00000000000000E+00  -8.44468828819192E-19  -1.66229104915034E-19  -1.01069793373423E-18
     -1.49028465474201E-15
      5.60000000000000E-01
      0.00000000000000E+00   0.00000000000000E+00   0.00000000000000E+00   0.00000000000000E+00   1.01769563588484E-18
     -1.33361028429116E-26   1.01769562254874E-18   1.54110806300903E-15  -1.92000000000000E+00  -1.92000000000000E+00
      0.00000000000000E+00   0.00000000000000E+00  -8.48092544092074E-19  -1.69603078456670E-19  -1.01769562254874E-18
     -1.54110806300903E-15
      5.80000000000000E-01
      0.00000000000000E+00   0.00000000000000E+00   0.00000000000000E+00   0.00000000000000E+00   1.02471953374037E-18
      2.14121196957901E-27   1.02471953588158E-18   1.59108070489837E-15  -2.06000000000000E+00  -2.06000000000000E+00
      0.00000000000000E+00   0.00000000000000E+00  -8.51608583243956E-19  -1.73110952637624E-19  -1.02471953588158E-18
     -1.59108070489837E-15
      6.00000000000000E-01
      0.00000000000000E+00   0.00000000000000E+00   0.00000000000000E+00   0.00000000000000E+00   1.03177260966152E-18
     -9.81871799663012E-28   1.03177260867965E-18   1.64022961707309E-15  -2.20000000000000E+00  -2.20000000000000E+00
      0.00000000000000E+00   0.00000000000000E+00  -8.55017459778367E-19  -1.76755148901284E-19  -1.03177260867965E-18
     -1.64022961707309E-15
      6.20000000000000E-01
      0.00000000000000E+00   0.00000000000000E+00   0.00000000000000E+00   0.00000000000000E+00   1.03886305105362E-18
     -5.72671140913671E-28   1.03886305048095E-18   1.68857369700396E-15  -2.34000000000000E+00  -2.34000000000000E+00
      0.00000000000000E+00   0.00000000000000E+00  -8.58325391792894E-19  -1.80537658688054E-19  -1.03886305048095E-18
     -1.68857369700396E-15
      6.40000000000000E-01
      0.00000000000000E+00   0.00000000000000E+00   0.00000000000000E+00   0.00000000000000E+00   1.04600537510725E-18
     -2.69559896604988E-27   1.04600537241165E-18   1.73613524034115E-15  -2.48000000000000E+00  -2.48000000000000E+00
      0.00000000000000E+00   0.00000000000000E+00  -8.61543286345585E-19  -1.84462086066063E-19  -1.04600537241165E-18
     -1.73613524034115E-15
      6.60000000000000E-01
      0.00000000000000E+00   0.00000000000000E+00   0.00000000000000E+00   0.00000000000000E+00   1.05321284842290E-18
     -7.34061173988179E-27   1.05321284108229E-18   1.78295192965587E-15  -2.62000000000000E+00  -2.62000000000000E+00
      0.00000000000000E+00   0.00000000000000E+00  -8.64676971477367E-19  -1.88535869604929E-19  -1.05321284108230E-18
     -1.78295192965587E-15
      6.80000000000000E-01
      0.00000000000000E+00   0.00000000000000E+00   0.00000000000000E+00   0.00000000000000E+00   1.06050407564781E-18
     -9.56508185536127E-27   1.06050406608273E-18   1.82907867795899E-15  -2.76000000000000E+00  -2.76000000000000E+00
      0.00000000000000E+00   0.00000000000000E+00  -8.67733535198117E-19  -1.92770530884614E-19  -1.06050406608273E-18
     -1.82907867795900E-15
      7.00000000000000E-01
      0.00000000000000E+00   0.00000000000000E+00   0.00000000000000E+00   0.00000000000000E+00   1.06790013498249E-18
     -1.16241863927887E-26   1.06790012335831E-18   1.87457831159283E-15  -2.90000000000000E+00  -2.90000000000000E+00
      0.00000000000000E+00   0.00000000000000E+00  -8.70719478016142E-19  -1.97180645342160E-19  -1.06790012335830E-18
     -1.87457831159283E-15
      7.20000000000000E-01
      0.00000000000000E+00   0.00000000000000E+00   0.00000000000000E+00   0.00000000000000E+00   1.07542726828248E-18
     -1.46962690273539E-26   1.07542725358621E-18   1.91950988816419E-15  -3.04000000000000E+00  -3.04000000000000E+00
      0.00000000000000E+00   0.00000000000000E+00  -8.73645174870093E-19  -2.01782078716118E-19  -1.07542725358621E-18
     -1.91950988816419E-15
      7.40000000000000E-01
      0.00000000000000E+00   0.00000000000000E+00   0.00000000000000E+00   0.00000000000000E+00   1.08311438281110E-18
     -5.47295122209590E-26   1.08311432808159E-18   1.96392206415613E-15  -3.18000000000000E+00  -3.18000000000000E+00
      0.00000000000000E+00   0.00000000000000E+00  -8.76523370915435E-19  -2.06590957166150E-19  -1.08311432808159E-18
     -1.96392206415613E-15
      7.60000000000000E-01
      0.00000000000000E+00   0.00000000000000E+00   0.00000000000000E+00   0.00000000000000E+00   1.09099087089669E-18
     -2.72822329980110E-26   1.09099084361446E-18   2.00785201174983E-15  -3.32000000000000E+00  -3.32000000000000E+00
      0.00000000000000E+00   0.00000000000000E+00  -8.79366842767203E-19  -2.11624000847255E-19  -1.09099084361446E-18
     -2.00785201174982E-15
      7.80000000000000E-01
      0.00000000000000E+00   0.00000000000000E+00   0.00000000000000E+00   0.00000000000000E+00   1.09908245583378E-18
     -6.71290009364252E-27   1.09908244912088E-18   2.05132701596280E-15  -3.46000000000000E+00  -3.46000000000000E+00
      0.00000000000000E+00   0.00000000000000E+00  -8.82185540710296E-19  -2.16896908410583E-19  -1.09908244912088E-18
     -2.05132701596280E-15
      8.00000000000000E-01
      0.00000000000000E+00   0.00000000000000E+00   0.00000000000000E+00   0.00000000000000E+00   1.10740804649286E-18
     -6.62300031707346E-27   1.10740803986986E-18   2.09436662286105E-15  -3.60000000000000E+00  -3.60000000000000E+00
      0.00000000000000E+00   0.00000000000000E+00  -8.84984846253895E-19  -2.22423193615958E-19  -1.10740803986985E-18
     -2.09436662286105E-15
      8.20000000000000E-01
      0.00000000000000E+00   0.00000000000000E+00   0.00000000000000E+00   0.00000000000000E+00   1.11598131294163E-18
     -7.07545802948855E-27   1.11598130586617E-18   2.13698476234596E-15  -3.74000000000000E+00  -3.74000000000000E+00
      0.00000000000000E+00   0.00000000000000E+00  -8.87764720080348E-19  -2.28216585785828E-19  -1.11598130586618E-18
     -2.13698476234596E-15
      8.40000000000000E-01
      0.00000000000000E+00   0.00000000000000E+00   0.00000000000000E+00   0.00000000000000E+00   1.12481050376608E-18
     -9.29304618982085E-27   1.12481049447304E-18   2.17919190927017E-15  -3.88000000000000E+00  -3.88000000000000E+00
      0.00000000000000E+00   0.00000000000000E+00  -8.90520129470655E-19  -2.34290365002382E-19  -1.12481049447304E-18
     -2.17919190927016E-15
      8.60000000000000E-01
      0.00000000000000E+00   0.00000000000000E+00   0.00000000000000E+00   0.00000000000000E+00   1.13389972280506E-18
     -4.35862520315786E-27   1.13389971844644E-18   2.22099705768097E-15  -4.02000000000000E+00  -4.02000000000000E+00
      0.00000000000000E+00   0.00000000000000E+00  -8.93242945235149E-19  -2.40656773211285E-19  -1.13389971844643E-18
     -2.22099705768097E-15
      8.80000000000000E-01
      0.00000000000000E+00   0.00000000000000E+00   0.00000000000000E+00   0.00000000000000E+00   1.14325199383184E-18
     -1.68237893104286E-27   1.14325199214946E-18   2.26240893945926E-15  -4.16000000000000E+00  -4.16000000000000E+00
      0.00000000000000E+00   0.00000000000000E+00  -8.95924824986819E-19  -2.47327167162645E-19  -1.14325199214946E-18
     -2.26240893945927E-15
      9.00000000000000E-01
      0.00000000000000E+00   0.00000000000000E+00   0.00000000000000E+00   0.00000000000000E+00   1.15287156151449E-18
     -8.83869443851290E-27   1.15287155267579E-18   2.30343636173070E-15  -4.30000000000000E+00  -4.30000000000000E+00
      0.00000000000000E+00   0.00000000000000E+00  -8.98559586834915E-19  -2.54311965840882E-19  -1.15287155267580E-18
     -2.30343636173070E-15
      9.20000000000000E-01
      0.00000000000000E+00   0.00000000000000E+00   0.00000000000000E+00   0.00000000000000E+00   1.16276548783927E-18
     -5.93415065928489E-27   1.16276548190512E-18   2.34408835173949E-15  -4.44000000000000E+00  -4.44000000000000E+00
      0.00000000000000E+00   0.00000000000000E+00  -9.01144263577529E-19  -2.61621218327593E-19  -1.16276548190512E-18
     -2.34408835173949E-15
      9.40000000000001E-01
      0.00000000000000E+00   0.00000000000000E+00   0.00000000000000E+00   0.00000000000000E+00   1.17294303709314E-18
     -4.39548843997259E-27   1.17294303269765E-18   2.38437482784530E-15  -4.58000000000000E+00  -4.58000000000000E+00
      0.00000000000000E+00   0.00000000000000E+00  -9.03678396377652E-19  -2.69264636319999E-19  -1.17294303269765E-18
     -2.38437482784530E-15
      9.60000000000001E-01
      0.00000000000000E+00   0.00000000000000E+00   0.00000000000000E+00   0.00000000000000E+00   1.18341559670133E-18
     -2.62824422868836E-27   1.18341559407309E-18   2.42430765716725E-15  -4.72000000000000E+00  -4.72000000000000E+00
      0.00000000000000E+00   0.00000000000000E+00  -9.06163245582847E-19  -2.77252348490237E-19  -1.18341559407308E-18
     -2.42430765716725E-15
      9.80000000000001E-01
      0.00000000000000E+00   0.00000000000000E+00   0.00000000000000E+00   0.00000000000000E+00   1.19419714194282E-18
     -5.55575037933912E-27   1.19419713638707E-18   2.46390125833619E-15  -4.86000000000000E+00  -4.86000000000000E+00
      0.00000000000000E+00   0.00000000000000E+00  -9.08601401709836E-19  -2.85595734677223E-19  -1.19419713638706E-18
     -2.46390125833619E-15
      1.00000000000000E+00
      0.00000000000000E+00   0.00000000000000E+00   0.00000000000000E+00   0.00000000000000E+00   1.20530426828882E-18
     -1.50327920122726E-27   1.20530426678554E-18   2.50317208759217E-15  -5.00000000000000E+00  -5.00000000000000E+00
      0.00000000000000E+00   0.00000000000000E+00  -9.10996916830017E-19  -2.94307349955524E-19  -1.20530426678554E-18
     -2.50317208759217E-15
      1.00000000000000E-03
      0.00000000000000E+00   0.00000000000000E+00   0.00000000000000E+00   0.00000000000000E+00   1.20570721710627E-18
     -6.16121904406383E-34   1.20570721710627E-18   2.50456886251326E-15  -5.00500000000000E+00  -5.00500000000000E+00
      0.00000000000000E+00   0.00000000000000E+00  -9.11081759803144E-19  -2.94625457303128E-19  -1.20570721710627E-18
     -2.50456886251326E-15
      2.00000000000000E-03
      0.00000000000000E+00   0.00000000000000E+00   0.00000000000000E+00   0.00000000000000E+00   1.20611059705142E-18
     -1.93952660723846E-32   1.20611059705140E-18   2.50596524830252E-15  -5.01000000000000E+00  -5.01000000000000E+00
      0.00000000000000E+00   0.00000000000000E+00  -9.11166546559018E-19  -2.94944050492372E-19  -1.20611059705139E-18
     -2.50596524830252E-15
      3.00000000000000E-03
      0.00000000000000E+00   0.00000000000000E+00   0.00000000000000E+00   0.00000000000000E+00   1.20651441846950E-18
     -1.83642049262352E-32   1.20651441846948E-18   2.50736124571682E-15  -5.01500000000000E+00  -5.01500000000000E+00
      0.00000000000000E+00   0.00000000000000E+00  -9.11251286707284E-19  -2.95263131762201E-19  -1.20651441846948E-18
     -2.50736124571682E-15
      4.00000000000000E-03
      0.00000000000000E+00   0.00000000000000E+00   0.00000000000000E+00   0.00000000000000E+00   1.20691868248515E-18
     -1.91862247119610E-32   1.20691868248513E-18   2.50875685551677E-15  -5.02000000000000E+00  -5.02000000000000E+00
      0.00000000000000E+00   0.00000000000000E+00  -9.11335980727610E-19  -2.95582701757505E-19  -1.20691868248512E-18
     -2.50875685551676E-15
      5.00000000000000E-03
      0.00000000000000E+00   0.00000000000000E+00   0.00000000000000E+00   0.00000000000000E+00   1.20732339006703E-18
     -1.92569529918036E-32   1.20732339006701E-18   2.51015207845850E-15  -5.02500000000000E+00  -5.02500000000000E+00
      0.00000000000000E+00   0.00000000000000E+00  -9.11420628942128E-19  -2.95902761124877E-19  -1.20732339006700E-18
     -2.51015207845849E-15
      6.00000000000000E-03
      0.00000000000000E+00   0.00000000000000E+00   0.00000000000000E+00   0.00000000000000E+00   1.20772854218776E-18
     -1.86675506597822E-32   1.20772854218774E-18   2.51154691529558E-15  -5.03000000000000E+00  -5.03000000000000E+00
      0.00000000000000E+00   0.00000000000000E+00  -9.11505231675029E-19  -2.96223310512700E-19  -1.20772854218773E-18
     -2.51154691529558E-15
      7.00000000000000E-03
      0.00000000000000E+00   0.00000000000000E+00   0.00000000000000E+00   0.00000000000000E+00   1.20813413982429E-18
     -1.81017244210416E-32   1.20813413982428E-18   2.51294136677895E-15  -5.03500000000000E+00  -5.03500000000000E+00
      0.00000000000000E+00   0.00000000000000E+00  -9.11589789253185E-19  -2.96544350571095E-19  -1.20813413982428E-18
     -2.51294136677895E-15
      8.00000000000000E-03
      0.00000000000000E+00   0.00000000000000E+00   0.00000000000000E+00   0.00000000000000E+00   1.20854018395893E-18
     -1.70250828278825E-32   1.20854018395891E-18   2.51433543365684E-15  -5.04000000000000E+00  -5.04000000000000E+00
      0.00000000000000E+00   0.00000000000000E+00  -9.11674302007054E-19  -2.96865881951855E-19  -1.20854018395891E-18
     -2.51433543365684E-15
      9.00000000000000E-03
      0.00000000000000E+00   0.00000000000000E+00   0.00000000000000E+00   0.00000000000000E+00   1.20894667557724E-18
     -1.82510396784870E-32   1.20894667557723E-18   2.51572911667463E-15  -5.04500000000000E+00  -5.04500000000000E+00
      0.00000000000000E+00   0.00000000000000E+00  -9.11758770268835E-19  -2.97187905308385E-19  -1.20894667557722E-18
     -2.51572911667463E-15
      1.00000000000000E-02
      0.00000000000000E+00   0.00000000000000E+00   0.00000000000000E+00   0.00000000000000E+00   1.20935361566925E-18
     -1.89064550716949E-32   1.20935361566923E-18   2.51712241657481E-15  -5.05000000000000E+00  -5.05000000000000E+00
      0.00000000000000E+00   0.00000000000000E+00  -9.11843194373600E-19  -2.97510421295631E-19  -1.20935361566923E-18
     -2.51712241657481E-15
      1.10000000000000E-02
      0.00000000000000E+00   0.00000000000000E+00   0.00000000000000E+00   0.00000000000000E+00   1.20976100522933E-18
     -1.72388394069623E-32   1.20976100522931E-18   2.51851533409690E-15  -5.05500000000000E+00  -5.05500000000000E+00
      0.00000000000000E+00   0.00000000000000E+00  -9.11927574659279E-19  -2.97833430570013E-19  -1.20976100522929E-18
     -2.51851533409690E-15
      1.20000000000000E-02
      0.00000000000000E+00   0.00000000000000E+00   0.00000000000000E+00   0.00000000000000E+00   1.21016884525554E-18
     -1.77669438964535E-32   1.21016884525552E-18   2.51990786997731E-15  -5.06000000000000E+00  -5.06000000000000E+00
      0.00000000000000E+00   0.00000000000000E+00  -9.12011911466196E-19  -2.98156933789341E-19  -1.21016884525554E-18
     -2.51990786997731E-15
      1.30000000000000E-02
      0.00000000000000E+00   0.00000000000000E+00   0.00000000000000E+00   0.00000000000000E+00   1.21057713674971E-18
     -1.75248960054367E-32   1.21057713674969E-18   2.52130002494935E-15  -5.06500000000000E+00  -5.06500000000000E+00
      0.00000000000000E+00   0.00000000000000E+00  -9.12096205136924E-19  -2.98480931612755E-19  -1.21057713674968E-18
     -2.52130002494934E-15
      1.40000000000000E-02
      0.00000000000000E+00   0.00000000000000E+00   0.00000000000000E+00   0.00000000000000E+00   1.21098588071746E-18
     -1.83799223217557E-32   1.21098588071744E-18   2.52269179974304E-15  -5.07000000000000E+00  -5.07000000000000E+00
      0.00000000000000E+00   0.00000000000000E+00  -9.12180456016797E-19  -2.98805424700633E-19  -1.21098588071743E-18
     -2.52269179974304E-15
      1.50000000000000E-02
      0.00000000000000E+00   0.00000000000000E+00   0.00000000000000E+00   0.00000000000000E+00   1.21139507816795E-18
     -1.87115593672398E-32   1.21139507816793E-18   2.52408319508515E-15  -5.07500000000000E+00  -5.07500000000000E+00
      0.00000000000000E+00   0.00000000000000E+00  -9.12264664453409E-19  -2.99130413714526E-19  -1.21139507816794E-18
     -2.52408319508515E-15
      1.60000000000000E-02
      0.00000000000000E+00   0.00000000000000E+00   0.00000000000000E+00   0.00000000000000E+00   1.21180473011411E-18
     -1.79398352471797E-32   1.21180473011409E-18   2.52547421169903E-15  -5.08000000000000E+00  -5.08000000000000E+00
      0.00000000000000E+00   0.00000000000000E+00  -9.12348830797006E-19  -2.99455899317076E-19  -1.21180473011408E-18
     -2.52547421169903E-15
      1.70000000000000E-02
      0.00000000000000E+00   0.00000000000000E+00   0.00000000000000E+00   0.00000000000000E+00   1.21221483757148E-18
     -1.62124934794690E-32   1.21221483757146E-18   2.52686485030458E-15  -5.08500000000000E+00  -5.08500000000000E+00
      0.00000000000000E+00   0.00000000000000E+00  -9.12432955399513E-19  -2.99781882171938E-19  -1.21221483757145E-18
     -2.52686485030458E-15
      1.80000000000000E-02
      0.00000000000000E+00   0.00000000000000E+00   0.00000000000000E+00   0.00000000000000E+00   1.21262540155950E-18
     -1.82950483859446E-32   1.21262540155948E-18   2.52825511161818E-15  -5.09000000000000E+00  -5.09000000000000E+00
      0.00000000000000E+00   0.00000000000000E+00  -9.12517038615767E-19  -3.00108362943712E-19  -1.21262540155948E-18
     -2.52825511161818E-15
      1.90000000000000E-02
      0.00000000000000E+00   0.00000000000000E+00   0.00000000000000E+00   0.00000000000000E+00   1.21303642310040E-18
     -1.79099721956907E-32   1.21303642310038E-18   2.52964499635259E-15  -5.09500000000000E+00  -5.09500000000000E+00
      0.00000000000000E+00   0.00000000000000E+00  -9.12601080802507E-19  -3.00435342297862E-19  -1.21303642310037E-18
     -2.52964499635259E-15
      2.00000000000000E-02
      0.00000000000000E+00   0.00000000000000E+00   0.00000000000000E+00   0.00000000000000E+00   1.21344790321945E-18
     -1.65284131294325E-32   1.21344790321944E-18   2.53103450521694E-15  -5.10000000000000E+00  -5.10000000000000E+00
      0.00000000000000E+00   0.00000000000000E+00  -9.12685082318791E-19  -3.00762820900647E-19  -1.21344790321944E-18
     -2.53103450521694E-15
      2.10000000000000E-02
      0.00000000000000E+00   0.00000000000000E+00   0.00000000000000E+00   0.00000000000000E+00   1.21385984294444E-18