DF-ISE text

Info {
  version   = 1.0
  type      = xyplot
  datasets  = [
    "time"
    "n1contact OuterVoltage" "n1contact InnerVoltage" "n1contact QuasiFermiPotential" "n1contact DisplacementCurrent" "n1contact eCurrent"
    "n1contact hCurrent" "n1contact TotalCurrent" "n1contact Charge" "n2contact OuterVoltage" "n2contact InnerVoltage"
    "n2contact QuasiFermiPotential" "n2contact DisplacementCurrent" "n2contact eCurrent" "n2contact hCurrent" "n2contact TotalCurrent"
    "n2contact Charge" ]
  functions = [
    Time
    OuterVoltage InnerVoltage QuasiFermiPotential DisplacementCurrent eCurrent
    hCurrent TotalCurrent Charge OuterVoltage InnerVoltage
    QuasiFermiPotential DisplacementCurrent eCurrent hCurrent TotalCurrent
    Charge ]
}

Data {
      0.00000000000000E+00
      3.00000000000000E+00   3.00000000000000E+00   0.00000000000000E+00   0.00000000000000E+00   1.66830675391343E-01
      5.54090094982962E-02   2.22239684889639E-01   6.41004761089661E-18   0.00000000000000E+00   0.00000000000000E+00
      0.00000000000000E+00   0.00000000000000E+00  -1.66830675391343E-01  -5.54090094982962E-02  -2.22239684889639E-01
     -6.41004761089659E-18
      2.00000000000000E-02
      2.84000000000000E+00   2.84000000000000E+00   0.00000000000000E+00   0.00000000000000E+00   1.49100361955412E-01
      4.95204674909549E-02   1.98620829446367E-01   6.38211026349376E-19   0.00000000000000E+00   0.00000000000000E+00
      0.00000000000000E+00   0.00000000000000E+00  -1.49100361955412E-01  -4.95204674909549E-02  -1.98620829446367E-01
     -6.38211026349264E-19
      4.00000000000000E-02
      2.68000000000000E+00   2.68000000000000E+00   0.00000000000000E+00   0.00000000000000E+00   1.31573011471364E-01
      4.36993644291210E-02   1.75272375900485E-01  -5.55644683120854E-18   0.00000000000000E+00   0.00000000000000E+00
      0.00000000000000E+00   0.00000000000000E+00  -1.31573011471364E-01  -4.36993644291211E-02  -1.75272375900485E-01
      5.55644683120884E-18
      6.00000000000000E-02
      2.52000000000000E+00   2.52000000000000E+00   0.00000000000000E+00   0.00000000000000E+00   1.14321964701307E-01
      3.79700533208659E-02   1.52292018022173E-01  -1.22959656878834E-17   0.00000000000000E+00   0.00000000000000E+00
      0.00000000000000E+00   0.00000000000000E+00  -1.14321964701307E-01  -3.79700533208659E-02  -1.52292018022173E-01
      1.22959656878837E-17
      8.00000000000000E-02
      2.36000000000000E+00   2.36000000000000E+00   0.00000000000000E+00   0.00000000000000E+00   9.74498909713139E-02
      3.23666252872307E-02   1.29816516258545E-01  -1.97551899108620E-17   0.00000000000000E+00   0.00000000000000E+00
      0.00000000000000E+00   0.00000000000000E+00  -9.74498909713139E-02  -3.23666252872307E-02  -1.29816516258545E-01
      1.97551899108616E-17
      1.00000000000000E-01
      2.20000000000000E+00   2.20000000000000E+00   0.00000000000000E+00   0.00000000000000E+00   8.10983918562569E-02
      2.69360981728867E-02   1.08034490029144E-01  -2.81931145112441E-17   0.00000000000000E+00   0.00000000000000E+00
      0.00000000000000E+00   0.00000000000000E+00  -8.10983918562569E-02  -2.69360981728867E-02  -1.08034490029144E-01
      2.81931145112442E-17
      1.20000000000000E-01
      2.04000000000000E+00   2.04000000000000E+00   0.00000000000000E+00   0.00000000000000E+00   6.54564677166024E-02
      2.17412274541128E-02   8.71976951707152E-02  -3.80097095090133E-17   0.00000000000000E+00   0.00000000000000E+00
      0.00000000000000E+00   0.00000000000000E+00  -6.54564677166024E-02  -2.17412274541128E-02  -8.71976951707152E-02
      3.80097095090134E-17
      1.40000000000000E-01
      1.88000000000000E+00   1.88000000000000E+00   0.00000000000000E+00   0.00000000000000E+00   5.07654662471294E-02
      1.68621489527715E-02   6.76276151999008E-02  -4.98551891401249E-17   0.00000000000000E+00   0.00000000000000E+00
      0.00000000000000E+00   0.00000000000000E+00  -5.07654662471294E-02  -1.68621489527715E-02  -6.76276151999008E-02
      4.98551891401250E-17
      1.60000000000000E-01
      1.72000000000000E+00   1.72000000000000E+00   0.00000000000000E+00   0.00000000000000E+00   3.73180119115626E-02
      1.23960229972953E-02   4.97140349088579E-02  -6.48564031069261E-17   0.00000000000000E+00   0.00000000000000E+00
      0.00000000000000E+00   0.00000000000000E+00  -3.73180119115626E-02  -1.23960229972953E-02  -4.97140349088579E-02
      6.48564031069259E-17
      1.80000000000000E-01
      1.56000000000000E+00   1.56000000000000E+00   0.00000000000000E+00   0.00000000000000E+00   2.54481379107990E-02
      8.45375762653848E-03   3.39018955373375E-02  -8.51364770218637E-17   0.00000000000000E+00   0.00000000000000E+00
      0.00000000000000E+00   0.00000000000000E+00  -2.54481379107990E-02  -8.45375762653848E-03  -3.39018955373375E-02
      8.51364770218647E-17
      2.00000000000000E-01
      1.40000000000000E+00   1.40000000000000E+00   0.00000000000000E+00   0.00000000000000E+00   1.55095049409462E-02
      5.15277627663176E-03   2.06622812175779E-02  -1.15193145271729E-16   0.00000000000000E+00   0.00000000000000E+00
      0.00000000000000E+00   0.00000000000000E+00  -1.55095049409462E-02  -5.15277627663176E-03  -2.06622812175779E-02
      1.15193145271729E-16
      2.20000000000000E-01
      1.24000000000000E+00   1.24000000000000E+00   0.00000000000000E+00   0.00000000000000E+00   7.83989600676142E-03
      2.60522841328561E-03   1.04451244200470E-02  -1.66418724899361E-16   0.00000000000000E+00   0.00000000000000E+00
      0.00000000000000E+00   0.00000000000000E+00  -7.83989600676142E-03  -2.60522841328561E-03  -1.04451244200470E-02
      1.66418724899361E-16
      2.40000000000000E-01
      1.08000000000000E+00   1.08000000000000E+00   0.00000000000000E+00   0.00000000000000E+00   2.71604250203553E-03
      9.02989376313922E-04   3.61903187834945E-03  -2.77929399995324E-16   0.00000000000000E+00   0.00000000000000E+00
      0.00000000000000E+00   0.00000000000000E+00  -2.71604250203553E-03  -9.02989376313922E-04  -3.61903187834945E-03
      2.77929399995325E-16
      2.60000000000000E-01
      9.20000000000000E-01   9.20000000000000E-01   0.00000000000000E+00   0.00000000000000E+00   3.02288698449301E-04
      1.00650719823518E-04   4.02939418272819E-04  -6.92206850393658E-16   0.00000000000000E+00   0.00000000000000E+00
      0.00000000000000E+00   0.00000000000000E+00  -3.02288698449301E-04  -1.00650719823518E-04  -4.02939418272819E-04
      6.92206850393657E-16
      2.80000000000000E-01
      7.60000000000000E-01   7.60000000000000E-01   0.00000000000000E+00   0.00000000000000E+00   1.46714300121445E-06
      4.89059390805194E-07   1.95620239201964E-06  -2.44781922484086E-15   0.00000000000000E+00   0.00000000000000E+00
      0.00000000000000E+00   0.00000000000000E+00  -1.46714300121445E-06  -4.89059390805194E-07  -1.95620239201964E-06
      2.44781922484086E-15
      3.00000000000000E-01
      6.00000000000000E-01   6.00000000000000E-01   0.00000000000000E+00   0.00000000000000E+00   3.03302298753546E-09
      1.01105206667862E-09   4.04407505421408E-09  -4.05600451362114E-15   0.00000000000000E+00   0.00000000000000E+00
      0.00000000000000E+00   0.00000000000000E+00  -3.03302298753546E-09  -1.01105206667862E-09  -4.04407505421408E-09
      4.05600451362117E-15
      3.20000000000000E-01
      4.40000000000000E-01   4.40000000000000E-01   0.00000000000000E+00   0.00000000000000E+00   6.23412003551241E-12
      2.07814599100304E-12   8.31226602651545E-12  -5.19801876811440E-15   0.00000000000000E+00   0.00000000000000E+00
      0.00000000000000E+00   0.00000000000000E+00  -6.23412003551241E-12  -2.07814599100304E-12  -8.31226602651545E-12
      5.19801876811448E-15
      3.40000000000000E-01
      2.80000000000000E-01   2.80000000000000E-01   0.00000000000000E+00   0.00000000000000E+00   1.28093471274700E-14
      4.27002509312225E-15   1.70793722205922E-14  -6.14014461640570E-15   0.00000000000000E+00   0.00000000000000E+00
      0.00000000000000E+00   0.00000000000000E+00  -1.28093471274700E-14  -4.27002509312225E-15  -1.70793722205922E-14
      6.14014461640585E-15
      3.60000000000000E-01
      1.20000000000000E-01   1.20000000000000E-01   0.00000000000000E+00   0.00000000000000E+00   2.60616826323199E-17
      8.68776538018415E-18   3.47494480125040E-17  -6.94867208547925E-15   0.00000000000000E+00   0.00000000000000E+00
      0.00000000000000E+00   0.00000000000000E+00  -2.60616826323199E-17  -8.68776538018415E-18  -3.47494480125040E-17
      6.94867208547918E-15
      3.80000000000000E-01
     -4.00000000000005E-02  -4.00000000000005E-02   0.00000000000000E+00   0.00000000000000E+00  -2.01278608241265E-19
     -6.70955401397619E-20  -2.68374148381027E-19  -7.67371291296703E-15   0.00000000000000E+00   0.00000000000000E+00
      0.00000000000000E+00   0.00000000000000E+00   2.01278608241265E-19   6.70955401397620E-20   2.68374148381027E-19
      7.67371291296701E-15
      4.00000000000000E-01
     -2.00000000000001E-01  -2.00000000000001E-01   0.00000000000000E+00   0.00000000000000E+00  -2.54157037148300E-19
     -8.47249555652541E-20  -3.38881992713554E-19  -8.33997405703213E-15   0.00000000000000E+00   0.00000000000000E+00
      0.00000000000000E+00   0.00000000000000E+00   2.54157037148300E-19   8.47249555652541E-20   3.38881992713554E-19
      8.33997405703194E-15
      4.20000000000000E-01
     -3.60000000000001E-01  -3.60000000000001E-01   0.00000000000000E+00   0.00000000000000E+00  -2.54489924109002E-19
     -8.48362895558765E-20  -3.39326213664879E-19  -8.95474565394102E-15   0.00000000000000E+00   0.00000000000000E+00
      0.00000000000000E+00   0.00000000000000E+00   2.54489924109002E-19   8.48362895558765E-20   3.39326213664879E-19
      8.95474565394113E-15
      4.40000000000000E-01
     -5.20000000000001E-01  -5.20000000000001E-01   0.00000000000000E+00   0.00000000000000E+00  -2.54721325999708E-19
     -8.49137361599122E-20  -3.39635062159620E-19  -9.52725186482643E-15   0.00000000000000E+00   0.00000000000000E+00
      0.00000000000000E+00   0.00000000000000E+00   2.54721325999708E-19   8.49137361599122E-20   3.39635062159620E-19
      9.52725186482630E-15
      4.60000000000000E-01
     -6.80000000000001E-01  -6.80000000000001E-01   0.00000000000000E+00   0.00000000000000E+00  -2.54938350217966E-19
     -8.49863710292528E-20  -3.39924721247218E-19  -1.00684209719994E-14   0.00000000000000E+00   0.00000000000000E+00
      0.00000000000000E+00   0.00000000000000E+00   2.54938350217966E-19   8.49863710292527E-20   3.39924721247218E-19
      1.00684209719992E-14
      4.80000000000000E-01
     -8.40000000000001E-01  -8.40000000000001E-01   0.00000000000000E+00   0.00000000000000E+00  -2.55145320468940E-19
     -8.50556414379136E-20  -3.40200961906854E-19  -1.05842020374807E-14   0.00000000000000E+00   0.00000000000000E+00
      0.00000000000000E+00   0.00000000000000E+00   2.55145320468940E-19   8.50556414379136E-20   3.40200961906854E-19
      1.05842020374807E-14
      5.00000000000000E-01
     -1.00000000000000E+00  -1.00000000000000E+00   0.00000000000000E+00   0.00000000000000E+00  -2.55344646373842E-19
     -8.51223537986290E-20  -3.40467000172471E-19  -1.10761069329604E-14   0.00000000000000E+00   0.00000000000000E+00
      0.00000000000000E+00   0.00000000000000E+00   2.55344646373842E-19   8.51223537986290E-20   3.40467000172471E-19
      1.10761069329606E-14
      5.20000000000000E-01
     -1.16000000000000E+00  -1.16000000000000E+00   0.00000000000000E+00   0.00000000000000E+00  -2.55536211929252E-19
     -8.51864692376641E-20  -3.40722681166916E-19  -1.15453819146240E-14   0.00000000000000E+00   0.00000000000000E+00
      0.00000000000000E+00   0.00000000000000E+00   2.55536211929252E-19   8.51864692376641E-20   3.40722681166916E-19
      1.15453819146240E-14
      5.40000000000000E-01
     -1.32000000000000E+00  -1.32000000000000E+00   0.00000000000000E+00   0.00000000000000E+00  -2.55719416184774E-19
     -8.52477865729107E-20  -3.40967202757685E-19  -1.19951692740709E-14   0.00000000000000E+00   0.00000000000000E+00
      0.00000000000000E+00   0.00000000000000E+00   2.55719416184774E-19   8.52477865729107E-20   3.40967202757685E-19
      1.19951692740707E-14
      5.60000000000000E-01
     -1.48000000000000E+00  -1.48000000000000E+00   0.00000000000000E+00   0.00000000000000E+00  -2.55895023598532E-19
     -8.53065616173513E-20  -3.41201585215884E-19  -1.24292185482030E-14   0.00000000000000E+00   0.00000000000000E+00
      0.00000000000000E+00   0.00000000000000E+00   2.55895023598532E-19   8.53065616173513E-20   3.41201585215883E-19
      1.24292185482031E-14
      5.80000000000000E-01
     -1.64000000000000E+00  -1.64000000000000E+00   0.00000000000000E+00   0.00000000000000E+00  -2.56064870817691E-19
     -8.53634090512771E-20  -3.41428279868968E-19  -1.28499181979757E-14   0.00000000000000E+00   0.00000000000000E+00
      0.00000000000000E+00   0.00000000000000E+00   2.56064870817691E-19   8.53634090512771E-20   3.41428279868968E-19
      1.28499181979755E-14
      6.00000000000000E-01
     -1.80000000000000E+00  -1.80000000000000E+00   0.00000000000000E+00   0.00000000000000E+00  -2.56230532828622E-19
     -8.54188559910503E-20  -3.41649388819673E-19  -1.32579947239505E-14   0.00000000000000E+00   0.00000000000000E+00
      0.00000000000000E+00   0.00000000000000E+00   2.56230532828622E-19   8.54188559910503E-20   3.41649388819673E-19
      1.32579947239506E-14
      6.20000000000000E-01
     -1.96000000000000E+00  -1.96000000000000E+00   0.00000000000000E+00   0.00000000000000E+00  -2.56392491410833E-19
     -8.54730636659471E-20  -3.41865555076781E-19  -1.36534775632193E-14   0.00000000000000E+00   0.00000000000000E+00
      0.00000000000000E+00   0.00000000000000E+00   2.56392491410833E-19   8.54730636659471E-20   3.41865555076781E-19
      1.36534775632192E-14
      6.40000000000000E-01
     -2.12000000000000E+00  -2.12000000000000E+00   0.00000000000000E+00   0.00000000000000E+00  -2.56550271639385E-19
     -8.55258730964683E-20  -3.42076144735853E-19  -1.40368077399441E-14   0.00000000000000E+00   0.00000000000000E+00
      0.00000000000000E+00   0.00000000000000E+00   2.56550271639385E-19   8.55258730964683E-20   3.42076144735853E-19
      1.40368077399443E-14
      6.60000000000000E-01
     -2.28000000000000E+00  -2.28000000000000E+00   0.00000000000000E+00   0.00000000000000E+00  -2.56703300039166E-19
     -8.55770923151739E-20  -3.42280392354340E-19  -1.44092558852718E-14   0.00000000000000E+00   0.00000000000000E+00
      0.00000000000000E+00   0.00000000000000E+00   2.56703300039166E-19   8.55770923151739E-20   3.42280392354340E-19
      1.44092558852720E-14
      6.80000000000000E-01
     -2.44000000000000E+00  -2.44000000000000E+00   0.00000000000000E+00   0.00000000000000E+00  -2.56851675425173E-19
     -8.56267543713472E-20  -3.42478429796521E-19  -1.47724463730137E-14   0.00000000000000E+00   0.00000000000000E+00
      0.00000000000000E+00   0.00000000000000E+00   2.56851675425174E-19   8.56267543713472E-20   3.42478429796521E-19
      1.47724463730135E-14
      7.00000000000000E-01
     -2.60000000000000E+00  -2.60000000000000E+00   0.00000000000000E+00   0.00000000000000E+00  -2.56996203725847E-19
     -8.56751289916032E-20  -3.42671332717450E-19  -1.51276294159911E-14   0.00000000000000E+00   0.00000000000000E+00
      0.00000000000000E+00   0.00000000000000E+00   2.56996203725847E-19   8.56751289916032E-20   3.42671332717450E-19
      1.51276294159914E-14
      7.20000000000000E-01
     -2.76000000000000E+00  -2.76000000000000E+00   0.00000000000000E+00   0.00000000000000E+00  -2.57137890254848E-19
     -8.57225526431760E-20  -3.42860442898024E-19  -1.54753687278407E-14   0.00000000000000E+00   0.00000000000000E+00
      0.00000000000000E+00   0.00000000000000E+00   2.57137890254848E-19   8.57225526431759E-20   3.42860442898024E-19
      1.54753687278407E-14
      7.40000000000000E-01
     -2.92000000000000E+00  -2.92000000000000E+00   0.00000000000000E+00   0.00000000000000E+00  -2.57277414917970E-19
     -8.57692528809077E-20  -3.43046667798878E-19  -1.58157034868266E-14   0.00000000000000E+00   0.00000000000000E+00
      0.00000000000000E+00   0.00000000000000E+00   2.57277414917970E-19   8.57692528809077E-20   3.43046667798878E-19
      1.58157034868265E-14
      7.60000000000000E-01
     -3.08000000000000E+00  -3.08000000000000E+00   0.00000000000000E+00   0.00000000000000E+00  -2.57414879780199E-19
     -8.58152638523785E-20  -3.43230143632577E-19  -1.61485387469759E-14   0.00000000000000E+00   0.00000000000000E+00
      0.00000000000000E+00   0.00000000000000E+00   2.57414879780199E-19   8.58152638523785E-20   3.43230143632577E-19
      1.61485387469759E-14
      7.80000000000000E-01
     -3.24000000000000E+00  -3.24000000000000E+00   0.00000000000000E+00   0.00000000000000E+00  -2.57549909775859E-19
     -8.58604600031549E-20  -3.43410369779014E-19  -1.64740213185746E-14   0.00000000000000E+00   0.00000000000000E+00
      0.00000000000000E+00   0.00000000000000E+00   2.57549909775859E-19   8.58604600031550E-20   3.43410369779014E-19
      1.64740213185746E-14
      8.00000000000000E-01
     -3.40000000000000E+00  -3.40000000000000E+00   0.00000000000000E+00   0.00000000000000E+00  -2.57682035658374E-19
     -8.59046842528390E-20  -3.43586719911213E-19  -1.67926925046358E-14   0.00000000000000E+00   0.00000000000000E+00
      0.00000000000000E+00   0.00000000000000E+00   2.57682035658374E-19   8.59046842528390E-20   3.43586719911213E-19
      1.67926925046359E-14
      8.20000000000000E-01
     -3.56000000000000E+00  -3.56000000000000E+00   0.00000000000000E+00   0.00000000000000E+00  -2.57811094267354E-19
     -8.59478819702468E-20  -3.43758976237600E-19  -1.71053383982498E-14   0.00000000000000E+00   0.00000000000000E+00
      0.00000000000000E+00   0.00000000000000E+00   2.57811094267354E-19   8.59478819702468E-20   3.43758976237600E-19
      1.71053383982499E-14
      8.40000000000000E-01
     -3.72000000000000E+00  -3.72000000000000E+00   0.00000000000000E+00   0.00000000000000E+00  -2.57937365920715E-19
     -8.59901469622612E-20  -3.43927512882976E-19  -1.74126909338856E-14   0.00000000000000E+00   0.00000000000000E+00
      0.00000000000000E+00   0.00000000000000E+00   2.57937365920715E-19   8.59901469622612E-20   3.43927512882976E-19
      1.74126909338857E-14
      8.60000000000000E-01
     -3.88000000000000E+00  -3.88000000000000E+00   0.00000000000000E+00   0.00000000000000E+00  -2.58061419822144E-19
     -8.60316697305977E-20  -3.44093089552742E-19  -1.77152124213457E-14   0.00000000000000E+00   0.00000000000000E+00
      0.00000000000000E+00   0.00000000000000E+00   2.58061419822144E-19   8.60316697305977E-20   3.44093089552742E-19
      1.77152124213455E-14
      8.80000000000000E-01
     -4.04000000000000E+00  -4.04000000000000E+00   0.00000000000000E+00   0.00000000000000E+00  -2.58183841501450E-19
     -8.60726462415552E-20  -3.44256487743005E-19  -1.80130583366804E-14   0.00000000000000E+00   0.00000000000000E+00
      0.00000000000000E+00   0.00000000000000E+00   2.58183841501450E-19   8.60726462415552E-20   3.44256487743005E-19
      1.80130583366804E-14
      9.00000000000000E-01
     -4.20000000000000E+00  -4.20000000000000E+00   0.00000000000000E+00   0.00000000000000E+00  -2.58305002453122E-19
     -8.61132008189089E-20  -3.44418203272030E-19  -1.83061770656974E-14   0.00000000000000E+00   0.00000000000000E+00
      0.00000000000000E+00   0.00000000000000E+00   2.58305002453122E-19   8.61132008189089E-20   3.44418203272030E-19
      1.83061770656974E-14
      9.20000000000000E-01
     -4.36000000000000E+00  -4.36000000000000E+00   0.00000000000000E+00   0.00000000000000E+00  -2.58424948233926E-19
     -8.61533486867657E-20  -3.44578296920691E-19  -1.85944731903298E-14   0.00000000000000E+00   0.00000000000000E+00
      0.00000000000000E+00   0.00000000000000E+00   2.58424948233926E-19   8.61533486867657E-20   3.44578296920692E-19
      1.85944731903297E-14
      9.40000000000001E-01
     -4.52000000000000E+00  -4.52000000000000E+00   0.00000000000000E+00   0.00000000000000E+00  -2.58543435606522E-19
     -8.61930084014590E-20  -3.44736444007981E-19  -1.88779660066007E-14   0.00000000000000E+00   0.00000000000000E+00
      0.00000000000000E+00   0.00000000000000E+00   2.58543435606522E-19   8.61930084014589E-20   3.44736444007981E-19
      1.88779660066007E-14
      9.60000000000001E-01
     -4.68000000000000E+00  -4.68000000000000E+00   0.00000000000000E+00   0.00000000000000E+00  -2.58660105985014E-19
     -8.62320599072463E-20  -3.44892165892261E-19  -1.91568745812960E-14   0.00000000000000E+00   0.00000000000000E+00
      0.00000000000000E+00   0.00000000000000E+00   2.58660105985014E-19   8.62320599072463E-20   3.44892165892261E-19
      1.91568745812961E-14
      9.80000000000001E-01
     -4.84000000000000E+00  -4.84000000000000E+00   0.00000000000000E+00   0.00000000000000E+00  -2.58774707859079E-19
     -8.62704189864852E-20  -3.45045126845564E-19  -1.94315866715416E-14   0.00000000000000E+00   0.00000000000000E+00
      0.00000000000000E+00   0.00000000000000E+00   2.58774707859079E-19   8.62704189864852E-20   3.45045126845564E-19
      1.94315866715415E-14
      1.00000000000000E+00
     -5.00000000000000E+00  -5.00000000000000E+00   0.00000000000000E+00   0.00000000000000E+00  -2.58887240459991E-19
     -8.63080853472281E-20  -3.45195325807219E-19  -1.97025387147829E-14   0.00000000000000E+00   0.00000000000000E+00
      0.00000000000000E+00   0.00000000000000E+00   2.58887240459991E-19   8.63080853472281E-20   3.45195325807219E-19
      1.97025387147830E-14
}
