DF-ISE text

Info {
  version   = 1.0
  type      = xyplot
  datasets  = [
    "time"
    "n1contact OuterVoltage" "n1contact InnerVoltage" "n1contact QuasiFermiPotential" "n1contact DisplacementCurrent" "n1contact eCurrent"
    "n1contact hCurrent" "n1contact TotalCurrent" "n1contact Charge" "n2contact OuterVoltage" "n2contact InnerVoltage"
    "n2contact QuasiFermiPotential" "n2contact DisplacementCurrent" "n2contact eCurrent" "n2contact hCurrent" "n2contact TotalCurrent"
    "n2contact Charge" ]
  functions = [
    Time
    OuterVoltage InnerVoltage QuasiFermiPotential DisplacementCurrent eCurrent
    hCurrent TotalCurrent Charge OuterVoltage InnerVoltage
    QuasiFermiPotential DisplacementCurrent eCurrent hCurrent TotalCurrent
    Charge ]
}

Data {
      0.00000000000000E+00
      0.00000000000000E+00   0.00000000000000E+00   0.00000000000000E+00   0.00000000000000E+00   4.41932137279207E-26
      8.70008433423013E-27   5.28932980621508E-26  -7.49842869654683E-15   0.00000000000000E+00   0.00000000000000E+00
      0.00000000000000E+00   0.00000000000000E+00  -4.41931752516857E-26  -8.70012281046544E-27  -5.28932980621512E-26
      7.49842869654688E-15
      0.00000000000000E+00
      0.00000000000000E+00   0.00000000000000E+00   0.00000000000000E+00   0.00000000000000E+00  -4.42533301377804E-26
     -1.35314990702503E-26  -5.77848292080307E-26  -7.49842824322386E-15   0.00000000000000E+00   0.00000000000000E+00
      0.00000000000000E+00   0.00000000000000E+00   4.42543929677055E-26   1.35304362403260E-26   5.77848292080315E-26
      7.49842824322371E-15
      0.00000000000000E+00
      0.00000000000000E+00   0.00000000000000E+00   0.00000000000000E+00   0.00000000000000E+00   2.63831087826845E-26
      7.55744734205003E-27   3.39405561247346E-26  -7.49842824322366E-15   0.00000000000000E+00   0.00000000000000E+00
      0.00000000000000E+00   0.00000000000000E+00  -2.63830782367595E-26  -7.55747788797508E-27  -3.39405561247346E-26
      7.49842824322350E-15
      1.00000000000000E-01
      1.00000000000000E-03   1.00000000000000E-03   0.00000000000000E+00   0.00000000000000E+00   9.99612973890732E-21
      3.65722464996307E-19   3.75718594735214E-19  -7.49399875803065E-15   0.00000000000000E+00   0.00000000000000E+00
      0.00000000000000E+00   0.00000000000000E+00  -3.72438452608583E-19  -3.28014212663754E-21  -3.75718594735220E-19
      7.49399875803063E-15
      2.00000000000000E-01
      2.00000000000000E-03   2.00000000000000E-03   0.00000000000000E+00   0.00000000000000E+00   2.03865257919422E-20
      7.34239597025122E-19   7.54626122817064E-19  -7.48956691739775E-15   0.00000000000000E+00   0.00000000000000E+00
      0.00000000000000E+00   0.00000000000000E+00  -7.47936465770313E-19  -6.68965704673552E-21  -7.54626122817048E-19
      7.48956691739776E-15
      3.00000000000000E-01
      3.00000000000000E-03   3.00000000000000E-03   0.00000000000000E+00   0.00000000000000E+00   3.11865253320296E-20
      1.10570568617186E-18   1.13689221150389E-18  -7.48513271772494E-15   0.00000000000000E+00   0.00000000000000E+00
      0.00000000000000E+00   0.00000000000000E+00  -1.12665862715020E-18  -1.02335843536925E-20  -1.13689221150389E-18
      7.48513271772503E-15
      4.00000000000000E-01
      4.00000000000000E-03   4.00000000000000E-03   0.00000000000000E+00   0.00000000000000E+00   4.24122404726841E-20
      1.48027739877938E-18   1.52268963925206E-18  -7.48069615536414E-15   0.00000000000000E+00   0.00000000000000E+00
      0.00000000000000E+00   0.00000000000000E+00  -1.50877244203658E-18  -1.39171972155054E-20  -1.52268963925208E-18
      7.48069615536410E-15
      5.00000000000000E-01
      5.00000000000000E-03   5.00000000000000E-03   0.00000000000000E+00   0.00000000000000E+00   5.40806003150006E-20
      1.85811390287324E-18   1.91219450318824E-18  -7.47625722663394E-15   0.00000000000000E+00   0.00000000000000E+00
      0.00000000000000E+00   0.00000000000000E+00  -1.89444844304111E-18  -1.77460601472053E-20  -1.91219450318832E-18
      7.47625722663400E-15
      6.00000000000000E-01
      6.00000000000000E-03   6.00000000000000E-03   0.00000000000000E+00   0.00000000000000E+00   6.62088738880668E-20
      2.23937674579377E-18   2.30558561968184E-18  -7.47181592780939E-15   0.00000000000000E+00   0.00000000000000E+00
      0.00000000000000E+00   0.00000000000000E+00  -2.28385978241040E-18  -2.17258372714321E-20  -2.30558561968183E-18
      7.47181592780942E-15
      7.00000000000000E-01
      7.00000000000000E-03   7.00000000000000E-03   0.00000000000000E+00   0.00000000000000E+00   7.88155172184366E-20
      2.62423021624469E-18   2.70304573346312E-18  -7.46737225512441E-15   0.00000000000000E+00   0.00000000000000E+00
      0.00000000000000E+00   0.00000000000000E+00  -2.67718314974943E-18  -2.58625837137273E-20  -2.70304573346316E-18
      7.46737225512449E-15
      8.00000000000000E-01
      8.00000000000000E-03   8.00000000000000E-03   0.00000000000000E+00   0.00000000000000E+00   9.19190910853834E-20
      3.01284106340527E-18   3.10476015449066E-18  -7.46292620477112E-15   0.00000000000000E+00   0.00000000000000E+00
      0.00000000000000E+00   0.00000000000000E+00  -3.07459776192686E-18  -3.01623925637693E-20  -3.10476015449063E-18
      7.46292620477107E-15
      9.00000000000000E-01
      9.00000000000000E-03   9.00000000000000E-03   0.00000000000000E+00   0.00000000000000E+00   1.05539394745990E-19
      3.40537893727901E-18   3.51091833202500E-18  -7.45847777289943E-15   0.00000000000000E+00   0.00000000000000E+00
      0.00000000000000E+00   0.00000000000000E+00  -3.47628657045774E-18  -3.46317615673200E-20  -3.51091833202506E-18
      7.45847777289930E-15
      1.00000000000000E+00
      1.00000000000000E-02   1.00000000000000E-02   0.00000000000000E+00   0.00000000000000E+00   1.19696467964330E-19
      3.80201613040744E-18   3.92171259837177E-18  -7.45402695561702E-15   0.00000000000000E+00   0.00000000000000E+00
      0.00000000000000E+00   0.00000000000000E+00  -3.88243533872793E-18  -3.92772596438177E-20  -3.92171259837175E-18
      7.45402695561696E-15
      0.00000000000000E+00
      1.00000000000000E-02   1.00000000000000E-02   0.00000000000000E+00   0.00000000000000E+00   1.19696620518836E-19
      3.80201617866754E-18   3.92171279918638E-18  -7.45402695561435E-15   0.00000000000000E+00   0.00000000000000E+00
      0.00000000000000E+00   0.00000000000000E+00  -3.88243549131955E-18  -3.92773078667575E-20  -3.92171279918631E-18
      7.45402695561430E-15
      1.00000000000000E-01
      1.90000000000000E-02   1.90000000000000E-02   0.00000000000000E+00   0.00000000000000E+00   2.75062512707398E-19
      7.58618550007724E-18   7.86124801278464E-18  -7.41386159300767E-15   0.00000000000000E+00   0.00000000000000E+00
      0.00000000000000E+00   0.00000000000000E+00  -7.77098906818804E-18  -9.02589445966036E-20  -7.86124801278464E-18
      7.41386159300773E-15
      2.00000000000000E-01
      2.80000000000000E-02   2.80000000000000E-02   0.00000000000000E+00   0.00000000000000E+00   4.95105636032590E-19
      1.18583821703720E-17   1.23534878064046E-17  -7.37349964050286E-15   0.00000000000000E+00   0.00000000000000E+00
      0.00000000000000E+00   0.00000000000000E+00  -1.21910243353130E-17  -1.62463471091351E-19  -1.23534878064043E-17
      7.37349964050284E-15
      3.00000000000000E-01
      3.70000000000000E-02   3.70000000000000E-02   0.00000000000000E+00   0.00000000000000E+00   8.06753555080678E-19
      1.67845742763361E-17   1.75913278314167E-17  -7.33293776830125E-15   0.00000000000000E+00   0.00000000000000E+00
      0.00000000000000E+00   0.00000000000000E+00  -1.73266011263957E-17  -2.64726705021168E-19  -1.75913278314169E-17
      7.33293776830138E-15
      4.00000000000000E-01
      4.60000000000000E-02   4.60000000000000E-02   0.00000000000000E+00   0.00000000000000E+00   1.24814412043171E-18
      2.25639158581673E-17   2.38120599785990E-17  -7.29217232890337E-15   0.00000000000000E+00   0.00000000000000E+00
      0.00000000000000E+00   0.00000000000000E+00  -2.34024970719090E-17  -4.09562906690423E-19  -2.38120599785994E-17
      7.29217232890347E-15
      5.00000000000000E-01
      5.50000000000000E-02   5.50000000000000E-02   0.00000000000000E+00   0.00000000000000E+00   1.87329221509160E-18
      2.94379374600327E-17   3.13112296751243E-17  -7.25119934035676E-15   0.00000000000000E+00   0.00000000000000E+00
      0.00000000000000E+00   0.00000000000000E+00  -3.06965336662524E-17  -6.14696008872374E-19  -3.13112296751248E-17
      7.25119934035676E-15
      6.00000000000000E-01
      6.40000000000000E-02   6.40000000000000E-02   0.00000000000000E+00   0.00000000000000E+00   2.75870279517922E-18
      3.77020790864808E-17   4.04607818816600E-17  -7.21001447061221E-15   0.00000000000000E+00   0.00000000000000E+00
      0.00000000000000E+00   0.00000000000000E+00  -3.95555522294257E-17  -9.05229652234681E-19  -4.04607818816604E-17
      7.21001447061226E-15
      7.00000000000000E-01
      7.30000000000000E-02   7.30000000000000E-02   0.00000000000000E+00   0.00000000000000E+00   4.01273052464242E-18
      4.77202419549711E-17   5.17329724796135E-17  -7.16861302321935E-15   0.00000000000000E+00   0.00000000000000E+00
      0.00000000000000E+00   0.00000000000000E+00  -5.04162542837924E-17  -1.31671819582144E-18  -5.17329724796138E-17
      7.16861302321934E-15
      8.00000000000000E-01
      8.20000000000000E-02   8.20000000000000E-02   0.00000000000000E+00   0.00000000000000E+00   5.78884011047000E-18
      5.99432537138628E-17   6.57320938243328E-17  -7.12698992462733E-15   0.00000000000000E+00   0.00000000000000E+00
      0.00000000000000E+00   0.00000000000000E+00  -6.38325759821641E-17  -1.89951784216720E-18  -6.57320938243313E-17
      7.12698992462739E-15
      9.00000000000000E-01
      9.10000000000000E-02   9.10000000000000E-02   0.00000000000000E+00   0.00000000000000E+00   8.30439005477918E-18
      7.49324213295246E-17   8.32368113843038E-17  -7.08513971337616E-15   0.00000000000000E+00   0.00000000000000E+00
      0.00000000000000E+00   0.00000000000000E+00  -8.05118614183809E-17  -2.72494996592069E-18  -8.32368113843016E-17
      7.08513971337613E-15
      1.00000000000000E+00
      1.00000000000000E-01   1.00000000000000E-01   0.00000000000000E+00   0.00000000000000E+00   1.18672295412884E-17
      9.33897240507016E-17   1.05256953591990E-16  -7.04305653147739E-15   0.00000000000000E+00   0.00000000000000E+00
      0.00000000000000E+00   0.00000000000000E+00  -1.01362925291018E-16  -3.89402830097438E-18  -1.05256953591992E-16
      7.04305653147728E-15
      0.00000000000000E+00
      1.00000000000000E-01   1.00000000000000E-01   0.00000000000000E+00   0.00000000000000E+00   1.18672282777974E-17
      9.33897236119284E-17   1.05256951889726E-16  -7.04305653147739E-15   0.00000000000000E+00   0.00000000000000E+00
      0.00000000000000E+00   0.00000000000000E+00  -1.01362924027527E-16  -3.89402786220085E-18  -1.05256951889728E-16
      7.04305653147728E-15
      2.00000000000000E-02
      1.18000000000000E-01   1.18000000000000E-01   0.00000000000000E+00   0.00000000000000E+00   2.40604197845913E-17
      1.44464930194783E-16   1.68525349979374E-16  -6.95816580725017E-15   0.00000000000000E+00   0.00000000000000E+00
      0.00000000000000E+00   0.00000000000000E+00  -1.60630372658952E-16  -7.89497732042066E-18  -1.68525349979373E-16
      6.95816580725023E-15
      4.00000000000000E-02
      1.36000000000000E-01   1.36000000000000E-01   0.00000000000000E+00   0.00000000000000E+00   4.85198579368478E-17
      2.23394372491304E-16   2.71914230428152E-16  -6.87226279802053E-15   0.00000000000000E+00   0.00000000000000E+00
      0.00000000000000E+00   0.00000000000000E+00  -2.55993422111144E-16  -1.59208083170045E-17  -2.71914230428149E-16
      6.87226279802049E-15
      6.00000000000000E-02
      1.54000000000000E-01   1.54000000000000E-01   0.00000000000000E+00   0.00000000000000E+00   9.75845949237582E-17
      3.46721851576955E-16   4.44306446500713E-16  -6.78528613477834E-15   0.00000000000000E+00   0.00000000000000E+00
      0.00000000000000E+00   0.00000000000000E+00  -4.12286197444413E-16  -3.20202490562965E-17  -4.44306446500710E-16
      6.78528613477840E-15
      8.00000000000000E-02
      1.72000000000000E-01   1.72000000000000E-01   0.00000000000000E+00   0.00000000000000E+00   1.96007064117460E-16
      5.41672174031651E-16   7.37679238149112E-16  -6.69716832642662E-15   0.00000000000000E+00   0.00000000000000E+00
      0.00000000000000E+00   0.00000000000000E+00  -6.73364133270518E-16  -6.43151048785954E-17  -7.37679238149114E-16
      6.69716832642660E-15
      1.00000000000000E-01
      1.90000000000000E-01   1.90000000000000E-01   0.00000000000000E+00   0.00000000000000E+00   3.93439366136813E-16
      8.53863433059285E-16   1.24730279919610E-15  -6.60783632031758E-15   0.00000000000000E+00   0.00000000000000E+00
      0.00000000000000E+00   0.00000000000000E+00  -1.11820558956985E-15  -1.29097209626243E-16  -1.24730279919609E-15
      6.60783632031765E-15
      1.20000000000000E-01
      2.08000000000000E-01   2.08000000000000E-01   0.00000000000000E+00   0.00000000000000E+00   7.89481355333567E-16
      1.36120051323055E-15   2.15068186856411E-15  -6.51721234476376E-15   0.00000000000000E+00   0.00000000000000E+00
      0.00000000000000E+00   0.00000000000000E+00  -1.89163480575111E-15  -2.59047062813020E-16  -2.15068186856413E-15
      6.51721234476363E-15
      1.40000000000000E-01
      2.26000000000000E-01   2.26000000000000E-01   0.00000000000000E+00   0.00000000000000E+00   1.58392534852256E-15
      2.19934325468768E-15   3.78326860321024E-15  -6.42521502522339E-15   0.00000000000000E+00   0.00000000000000E+00
      0.00000000000000E+00   0.00000000000000E+00  -3.26354885525053E-15  -5.19719747959665E-16  -3.78326860321020E-15
      6.42521502522346E-15
      1.60000000000000E-01
      2.44000000000000E-01   2.44000000000000E-01   0.00000000000000E+00   0.00000000000000E+00   3.17754360979588E-15
      3.60913142215249E-15   6.78667503194837E-15  -6.33176073583952E-15   0.00000000000000E+00   0.00000000000000E+00
      0.00000000000000E+00   0.00000000000000E+00  -5.74406065710107E-15  -1.04261437484731E-15  -6.78667503194838E-15
      6.33176073583948E-15
      1.80000000000000E-01
      2.62000000000000E-01   2.62000000000000E-01   0.00000000000000E+00   0.00000000000000E+00   6.37426098471257E-15
      6.02612016650710E-15   1.24003811512197E-14  -6.23676511253201E-15   0.00000000000000E+00   0.00000000000000E+00
      0.00000000000000E+00   0.00000000000000E+00  -1.03088724757900E-14  -2.09150867542968E-15  -1.24003811512197E-14
      6.23676511253200E-15
      2.00000000000000E-01
      2.80000000000000E-01   2.80000000000000E-01   0.00000000000000E+00   0.00000000000000E+00   1.27866974556410E-14
      1.02516174269068E-14   2.30383148825478E-14  -6.14014461641146E-15   0.00000000000000E+00   0.00000000000000E+00
      0.00000000000000E+00   0.00000000000000E+00  -1.88427946455549E-14  -4.19552023699307E-15  -2.30383148825479E-14
      6.14014461641146E-15
      2.20000000000000E-01
      2.98000000000000E-01   2.98000000000000E-01   0.00000000000000E+00   0.00000000000000E+00   2.56496531107972E-14
      1.77826428023829E-14   4.34322959131802E-14  -6.04181800156510E-15   0.00000000000000E+00   0.00000000000000E+00
      0.00000000000000E+00   0.00000000000000E+00  -3.50162811599773E-14  -8.41601475320334E-15  -4.34322959131806E-14
      6.04181800156522E-15
      2.40000000000000E-01
      3.16000000000000E-01   3.16000000000000E-01   0.00000000000000E+00   0.00000000000000E+00   5.14518873408215E-14
      3.14536376420594E-14   8.29055249828810E-14  -5.94170751436798E-15   0.00000000000000E+00   0.00000000000000E+00
      0.00000000000000E+00   0.00000000000000E+00  -6.60235278360794E-14  -1.68819971468021E-14  -8.29055249828815E-14
      5.94170751436781E-15
      2.60000000000000E-01
      3.34000000000000E-01   3.34000000000000E-01   0.00000000000000E+00   0.00000000000000E+00   1.03209313909365E-13
      5.66926706389904E-14   1.59901984548355E-13  -5.83973963660918E-15   0.00000000000000E+00   0.00000000000000E+00
      0.00000000000000E+00   0.00000000000000E+00  -1.26037935687930E-13  -3.38640488604236E-14  -1.59901984548353E-13
      5.83973963660927E-15
      2.80000000000000E-01
      3.52000000000000E-01   3.52000000000000E-01   0.00000000000000E+00   0.00000000000000E+00   2.07030702326847E-13
      1.03993496736129E-13   3.11024199062976E-13  -5.73584518407739E-15   0.00000000000000E+00   0.00000000000000E+00
      0.00000000000000E+00   0.00000000000000E+00  -2.43095674432497E-13  -6.79285246304784E-14  -3.11024199062975E-13
      5.73584518407747E-15
      3.00000000000000E-01
      3.70000000000000E-01   3.70000000000000E-01   0.00000000000000E+00   0.00000000000000E+00   4.15287773143275E-13
      1.93800542017902E-13   6.09088315161177E-13  -5.62995858501632E-15   0.00000000000000E+00   0.00000000000000E+00
      0.00000000000000E+00   0.00000000000000E+00  -4.72829702318674E-13  -1.36258612842511E-13  -6.09088315161185E-13
      5.62995858501637E-15
      3.20000000000000E-01
      3.88000000000000E-01   3.88000000000000E-01   0.00000000000000E+00   0.00000000000000E+00   8.33032912839407E-13
      3.66193721182295E-13   1.19922663402170E-12  -5.52201618544296E-15   0.00000000000000E+00   0.00000000000000E+00
      0.00000000000000E+00   0.00000000000000E+00  -9.25904800403207E-13  -2.73321833618491E-13  -1.19922663402170E-12
      5.52201618544291E-15
      3.40000000000000E-01
      4.06000000000000E-01   4.06000000000000E-01   0.00000000000000E+00   0.00000000000000E+00   1.67098988984396E-12
      7.00138672905903E-13   2.37112856274987E-12  -5.41195345514782E-15   0.00000000000000E+00   0.00000000000000E+00
      0.00000000000000E+00   0.00000000000000E+00  -1.82287269731220E-12  -5.48255865437661E-13  -2.37112856274986E-12
      5.41195345514790E-15
      3.60000000000000E-01
      4.24000000000000E-01   4.24000000000000E-01   0.00000000000000E+00   0.00000000000000E+00   3.35184633764111E-12
      1.35182682601880E-12   4.70367316365991E-12  -5.29970099363461E-15   0.00000000000000E+00   0.00000000000000E+00
      0.00000000000000E+00   0.00000000000000E+00  -3.60393115525468E-12  -1.09974200840527E-12  -4.70367316365995E-12
      5.29970099363458E-15
      3.80000000000000E-01
      4.42000000000000E-01   4.42000000000000E-01   0.00000000000000E+00   0.00000000000000E+00   6.72346157581682E-12
      2.63115558040972E-12   9.35461715622654E-12  -5.18517925569972E-15   0.00000000000000E+00   0.00000000000000E+00
      0.00000000000000E+00   0.00000000000000E+00  -7.14866119292964E-12  -2.20595596329682E-12  -9.35461715622646E-12
      5.18517925569976E-15
      4.00000000000000E-01
      4.60000000000000E-01   4.60000000000000E-01   0.00000000000000E+00   0.00000000000000E+00   1.34865293276341E-11
      5.15447539772169E-12   1.86410047253557E-11  -5.06829193228390E-15   0.00000000000000E+00   0.00000000000000E+00
      0.00000000000000E+00   0.00000000000000E+00  -1.42161272159540E-11  -4.42487750940151E-12  -1.86410047253555E-11
      5.06829193228398E-15
      4.20000000000000E-01
      4.78000000000000E-01   4.78000000000000E-01   0.00000000000000E+00   0.00000000000000E+00   2.70523991145717E-11
      1.01499458060899E-11   3.72023449206617E-11  -4.94891793986785E-15   0.00000000000000E+00   0.00000000000000E+00
      0.00000000000000E+00   0.00000000000000E+00  -2.83266183038416E-11  -8.87572661682012E-12  -3.72023449206617E-11
      4.94891793986803E-15
      4.40000000000000E-01
      4.96000000000000E-01   4.96000000000000E-01   0.00000000000000E+00   0.00000000000000E+00   5.42637131346033E-11
      2.00684170763319E-11   7.43321302109352E-11  -4.82690200421703E-15   0.00000000000000E+00   0.00000000000000E+00
      0.00000000000000E+00   0.00000000000000E+00  -5.65286604773704E-11  -1.78034697335650E-11  -7.43321302109353E-11
      4.82690200421704E-15
      4.60000000000000E-01
      5.14000000000000E-01   5.14000000000000E-01   0.00000000000000E+00   0.00000000000000E+00   1.08845667758179E-10
      3.98062224801732E-11   1.48651890238352E-10  -4.70204389254811E-15   0.00000000000000E+00   0.00000000000000E+00
      0.00000000000000E+00   0.00000000000000E+00  -1.12940790272648E-10  -3.57110999657053E-11  -1.48651890238353E-10
      4.70204389254818E-15
      4.80000000000000E-01
      5.32000000000000E-01   5.32000000000000E-01   0.00000000000000E+00   0.00000000000000E+00   2.18328498706326E-10
      7.91538852156423E-11   2.97482383921968E-10  -4.57408648089599E-15   0.00000000000000E+00   0.00000000000000E+00
      0.00000000000000E+00   0.00000000000000E+00  -2.25851656455677E-10  -7.16307274662922E-11  -2.97482383921969E-10
      4.57408648089585E-15
      5.00000000000000E-01
      5.50000000000000E-01   5.50000000000000E-01   0.00000000000000E+00   0.00000000000000E+00   4.37932312431316E-10
      1.57701413059006E-10   5.95633725490323E-10  -4.44270307574981E-15   0.00000000000000E+00   0.00000000000000E+00
      0.00000000000000E+00   0.00000000000000E+00  -4.51954927819726E-10  -1.43678797670590E-10  -5.95633725490317E-10
      4.44270307574972E-15
      5.20000000000000E-01
      5.68000000000000E-01   5.68000000000000E-01   0.00000000000000E+00   0.00000000000000E+00   8.78416225456413E-10
      3.14667133594461E-10   1.19308335905087E-09  -4.30748477799548E-15   0.00000000000000E+00   0.00000000000000E+00
      0.00000000000000E+00   0.00000000000000E+00  -9.04890840841926E-10  -2.88192518208938E-10  -1.19308335905086E-09
      4.30748477799545E-15
      5.40000000000000E-01
      5.86000000000000E-01   5.86000000000000E-01   0.00000000000000E+00   0.00000000000000E+00   1.76193469633177E-09
      6.28595517187007E-10   2.39053021351878E-09  -4.16792921105755E-15   0.00000000000000E+00   0.00000000000000E+00
      0.00000000000000E+00   0.00000000000000E+00  -1.81247582338264E-09  -5.78054390136122E-10  -2.39053021351877E-09
      4.16792921105757E-15
      5.60000000000000E-01
      6.04000000000000E-01   6.04000000000000E-01   0.00000000000000E+00   0.00000000000000E+00   3.53406299800539E-09
      1.25683808764809E-09   4.79090108565348E-09  -4.02343263414858E-15   0.00000000000000E+00   0.00000000000000E+00
      0.00000000000000E+00   0.00000000000000E+00  -3.63145755862171E-09  -1.15944352703180E-09  -4.79090108565351E-09
      4.02343263414852E-15
      5.80000000000000E-01
      6.22000000000000E-01   6.22000000000000E-01   0.00000000000000E+00   0.00000000000000E+00   7.08846146872213E-09
      2.51469073060622E-09   9.60315219932834E-09  -3.87328827070075E-15   0.00000000000000E+00   0.00000000000000E+00
      0.00000000000000E+00   0.00000000000000E+00  -7.27761345852903E-09  -2.32553874079942E-09  -9.60315219932845E-09
      3.87328827070074E-15
      6.00000000000000E-01
      6.40000000000000E-01   6.40000000000000E-01   0.00000000000000E+00   0.00000000000000E+00   1.42173836959543E-08
      5.03401638235348E-09   1.92514000783078E-08  -3.71669446727053E-15   0.00000000000000E+00   0.00000000000000E+00
      0.00000000000000E+00   0.00000000000000E+00  -1.45870898888347E-08  -4.66431018947322E-09  -1.92514000783079E-08
      3.71669446727064E-15
      6.20000000000000E-01
      6.58000000000000E-01   6.58000000000000E-01   0.00000000000000E+00   0.00000000000000E+00   2.85148700868835E-08
      1.00811404948473E-08   3.85960105817308E-08  -3.55277685385668E-15   0.00000000000000E+00   0.00000000000000E+00
      0.00000000000000E+00   0.00000000000000E+00  -2.92411966186333E-08  -9.35481396309701E-09  -3.85960105817303E-08
      3.55277685385676E-15
      6.40000000000000E-01
      6.76000000000000E-01   6.76000000000000E-01   0.00000000000000E+00   0.00000000000000E+00   5.71867734464771E-08
      2.01937063484119E-08   7.73804797948891E-08  -3.38062881390514E-15   0.00000000000000E+00   0.00000000000000E+00
      0.00000000000000E+00   0.00000000000000E+00  -5.86195100168155E-08  -1.87609697780732E-08  -7.73804797948887E-08
      3.38062881390520E-15
      6.60000000000000E-01
      6.94000000000000E-01   6.94000000000000E-01   0.00000000000000E+00   0.00000000000000E+00   1.14675251902644E-07
      4.04554959559002E-08   1.55130747858544E-07  -3.19937433746394E-15   0.00000000000000E+00   0.00000000000000E+00
      0.00000000000000E+00   0.00000000000000E+00  -1.17510180248942E-07  -3.76205676096021E-08  -1.55130747858544E-07
      3.19937433746393E-15
      6.80000000000000E-01
      7.12000000000000E-01   7.12000000000000E-01   0.00000000000000E+00   0.00000000000000E+00   2.29905374712455E-07
      8.10441181878627E-08   3.10949492900318E-07  -3.00825734858740E-15   0.00000000000000E+00   0.00000000000000E+00
      0.00000000000000E+00   0.00000000000000E+00  -2.35526985114905E-07  -7.54225077854130E-08  -3.10949492900318E-07
      3.00825734858740E-15
      7.00000000000000E-01
      7.30000000000000E-01   7.30000000000000E-01   0.00000000000000E+00   0.00000000000000E+00   4.60728844479987E-07
      1.62305720979655E-07   6.23034565459642E-07  -2.80676340110784E-15   0.00000000000000E+00   0.00000000000000E+00
      0.00000000000000E+00   0.00000000000000E+00  -4.71889421172135E-07  -1.51145144287507E-07  -6.23034565459641E-07
      2.80676340110788E-15
      7.20000000000000E-01
      7.48000000000000E-01   7.48000000000000E-01   0.00000000000000E+00   0.00000000000000E+00   9.22535733371807E-07
      3.24796698024469E-07   1.24733243139628E-06  -2.59478562294652E-15   0.00000000000000E+00   0.00000000000000E+00
      0.00000000000000E+00   0.00000000000000E+00  -9.44689367730124E-07  -3.02643063666151E-07  -1.24733243139628E-06
      2.59478562294649E-15
      7.40000000000000E-01
      7.66000000000000E-01   7.66000000000000E-01   0.00000000000000E+00   0.00000000000000E+00   1.84423709196022E-06
      6.48892985821219E-07   2.49313007778144E-06  -2.37285901937136E-15   0.00000000000000E+00   0.00000000000000E+00
      0.00000000000000E+00   0.00000000000000E+00  -1.88811405964494E-06  -6.05016018136497E-07  -2.49313007778144E-06
      2.37285901937136E-15
      7.60000000000000E-01
      7.84000000000000E-01   7.84000000000000E-01   0.00000000000000E+00   0.00000000000000E+00   3.67513089577386E-06
      1.29208280612735E-06   4.96721370190121E-06  -2.14250304146933E-15   0.00000000000000E+00   0.00000000000000E+00
      0.00000000000000E+00   0.00000000000000E+00  -3.76152968151053E-06  -1.20568402039066E-06  -4.96721370190120E-06
      2.14250304146935E-15
      7.80000000000000E-01
      8.02000000000000E-01   8.02000000000000E-01   0.00000000000000E+00   0.00000000000000E+00   7.27903008442541E-06
      2.55622145647818E-06   9.83525154090359E-06  -1.90671138917974E-15   0.00000000000000E+00   0.00000000000000E+00
      0.00000000000000E+00   0.00000000000000E+00  -7.44710726239760E-06  -2.38814427850600E-06  -9.83525154090360E-06
      1.90671138917972E-15
      8.00000000000000E-01
      8.20000000000000E-01   8.20000000000000E-01   0.00000000000000E+00   0.00000000000000E+00   1.42532319843657E-05
      4.99646384348863E-06   1.92496958278543E-05  -1.67054460280969E-15   0.00000000000000E+00   0.00000000000000E+00
      0.00000000000000E+00   0.00000000000000E+00  -1.45728157182588E-05  -4.67688010959553E-06  -1.92496958278543E-05
      1.67054460280969E-15
      8.20000000000000E-01
      8.38000000000000E-01   8.38000000000000E-01   0.00000000000000E+00   0.00000000000000E+00   2.73521298752867E-05
      9.56161846261381E-06   3.69137483379005E-05  -1.44149266193602E-15   0.00000000000000E+00   0.00000000000000E+00
      0.00000000000000E+00   0.00000000000000E+00  -2.79365660459591E-05  -8.97718229194132E-06  -3.69137483379004E-05
      1.44149266193603E-15
      8.40000000000000E-01
      8.56000000000000E-01   8.56000000000000E-01   0.00000000000000E+00   0.00000000000000E+00   5.08095557867945E-05
      1.76911848011986E-05   6.85007405879931E-05  -1.22880253143654E-15   0.00000000000000E+00   0.00000000000000E+00
      0.00000000000000E+00   0.00000000000000E+00  -5.18177573927831E-05  -1.66829831952101E-05  -6.85007405879932E-05
      1.22880253143654E-15
      8.60000000000000E-01
      8.74000000000000E-01   8.74000000000000E-01   0.00000000000000E+00   0.00000000000000E+00   9.01289129759172E-05
      3.12263911243820E-05   1.21355304100299E-04  -1.04106308759443E-15   0.00000000000000E+00   0.00000000000000E+00
      0.00000000000000E+00   0.00000000000000E+00  -9.17440135865459E-05  -2.96112905137532E-05  -1.21355304100299E-04
      1.04106308759442E-15
      8.80000000000000E-01
      8.92000000000000E-01   8.92000000000000E-01   0.00000000000000E+00   0.00000000000000E+00   1.51114271101281E-04
      5.20780800098942E-05   2.03192351111175E-04  -8.83066330183734E-16   0.00000000000000E+00   0.00000000000000E+00
      0.00000000000000E+00   0.00000000000000E+00  -1.53506134823211E-04  -4.96862162879633E-05  -2.03192351111175E-04
      8.83066330183736E-16
      9.00000000000000E-01
      9.10000000000000E-01   9.10000000000000E-01   0.00000000000000E+00   0.00000000000000E+00   2.38689188430123E-04
      8.18469452258633E-05   3.20536133655986E-04  -7.54571171252711E-16   0.00000000000000E+00   0.00000000000000E+00
      0.00000000000000E+00   0.00000000000000E+00  -2.41987594492451E-04  -7.85485391635348E-05  -3.20536133655986E-04
      7.54571171252709E-16
      9.20000000000000E-01
      9.28000000000000E-01   9.28000000000000E-01   0.00000000000000E+00   0.00000000000000E+00   3.56319128122946E-04
      1.21651228117812E-04   4.77970356240758E-04  -6.51800206800759E-16   0.00000000000000E+00   0.00000000000000E+00
      0.00000000000000E+00   0.00000000000000E+00  -3.60610434182935E-04  -1.17359922057824E-04  -4.77970356240759E-04
      6.51800206800755E-16
      9.40000000000001E-01