DF-ISE text

Info {
  version   = 1.0
  type      = xyplot
  datasets  = [
    "time"
    "n1contact OuterVoltage" "n1contact InnerVoltage" "n1contact QuasiFermiPotential" "n1contact DisplacementCurrent" "n1contact eCurrent"
    "n1contact hCurrent" "n1contact TotalCurrent" "n1contact Charge" "n2contact OuterVoltage" "n2contact InnerVoltage"
    "n2contact QuasiFermiPotential" "n2contact DisplacementCurrent" "n2contact eCurrent" "n2contact hCurrent" "n2contact TotalCurrent"
    "n2contact Charge" ]
  functions = [
    Time
    OuterVoltage InnerVoltage QuasiFermiPotential DisplacementCurrent eCurrent
    hCurrent TotalCurrent Charge OuterVoltage InnerVoltage
    QuasiFermiPotential DisplacementCurrent eCurrent hCurrent TotalCurrent
    Charge ]
}

Data {
      0.00000000000000E+00
      3.00000000000000E+00   3.00000000000000E+00   0.00000000000000E+00   0.00000000000000E+00   1.66206447659973E-01
      5.52605527716000E-02   2.21467000431573E-01   6.24933363212732E-18   0.00000000000000E+00   0.00000000000000E+00
      0.00000000000000E+00   0.00000000000000E+00  -1.66295411185439E-01  -5.51715892461332E-02  -2.21467000431572E-01
     -6.24933363212734E-18
      2.00000000000000E-02
      2.84000000000000E+00   2.84000000000000E+00   0.00000000000000E+00   0.00000000000000E+00   1.48512137844921E-01
      4.93818215937745E-02   1.97893959438696E-01   4.58198431088675E-19   0.00000000000000E+00   0.00000000000000E+00
      0.00000000000000E+00   0.00000000000000E+00  -1.48597844661277E-01  -4.92961147774185E-02  -1.97893959438696E-01
     -4.58198431088800E-19
      4.00000000000000E-02
      2.68000000000000E+00   2.68000000000000E+00   0.00000000000000E+00   0.00000000000000E+00   1.31024481106716E-01
      4.35715136537932E-02   1.74595994760510E-01  -5.75900409830108E-18   0.00000000000000E+00   0.00000000000000E+00
      0.00000000000000E+00   0.00000000000000E+00  -1.31106566486498E-01  -4.34894282740136E-02  -1.74595994760512E-01
      5.75900409830104E-18
      6.00000000000000E-02
      2.52000000000000E+00   2.52000000000000E+00   0.00000000000000E+00   0.00000000000000E+00   1.13817310814493E-01
      3.78541079656067E-02   1.51671418780099E-01  -1.25251447710932E-17   0.00000000000000E+00   0.00000000000000E+00
      0.00000000000000E+00   0.00000000000000E+00  -1.13895353143400E-01  -3.77760656366990E-02  -1.51671418780099E-01
      1.25251447710931E-17
      8.00000000000000E-02
      2.36000000000000E+00   2.36000000000000E+00   0.00000000000000E+00   0.00000000000000E+00   9.69937315595065E-02
      3.22637973164422E-02   1.29257528875949E-01  -2.00162129458817E-17   0.00000000000000E+00   0.00000000000000E+00
      0.00000000000000E+00   0.00000000000000E+00  -9.70672444184203E-02  -3.21902844575281E-02  -1.29257528875948E-01
      2.00162129458817E-17
      1.00000000000000E-01
      2.20000000000000E+00   2.20000000000000E+00   0.00000000000000E+00   0.00000000000000E+00   8.06955467764301E-02
      2.68476197541395E-02   1.07543166530570E-01  -2.84928516492952E-17   0.00000000000000E+00   0.00000000000000E+00
      0.00000000000000E+00   0.00000000000000E+00  -8.07639731131732E-02  -2.67791934173957E-02  -1.07543166530569E-01
      2.84928516492949E-17
      1.20000000000000E-01
      2.04000000000000E+00   2.04000000000000E+00   0.00000000000000E+00   0.00000000000000E+00   6.51114852915043E-02
      2.16681926580573E-02   8.67796779495616E-02  -3.83575208415200E-17   0.00000000000000E+00   0.00000000000000E+00
      0.00000000000000E+00   0.00000000000000E+00  -6.51741959802604E-02  -2.16054819693013E-02  -8.67796779495617E-02
      3.83575208415204E-17
      1.40000000000000E-01
      1.88000000000000E+00   1.88000000000000E+00   0.00000000000000E+00   0.00000000000000E+00   5.04818946434498E-02
      1.68052755697639E-02   6.72871702132137E-02  -5.02643950101213E-17   0.00000000000000E+00   0.00000000000000E+00
      0.00000000000000E+00   0.00000000000000E+00  -5.05381944701601E-02  -1.67489757430533E-02  -6.72871702132134E-02
      5.02643950101209E-17
      1.60000000000000E-01
      1.72000000000000E+00   1.72000000000000E+00   0.00000000000000E+00   0.00000000000000E+00   3.70974705268144E-02
      1.23553553509484E-02   4.94528258777628E-02  -6.53470013730184E-17   0.00000000000000E+00   0.00000000000000E+00
      0.00000000000000E+00   0.00000000000000E+00  -3.71466153491858E-02  -1.23062105285769E-02  -4.94528258777627E-02
      6.53470013730184E-17
      1.80000000000000E-01
      1.56000000000000E+00   1.56000000000000E+00   0.00000000000000E+00   0.00000000000000E+00   2.52893239021294E-02
      8.42835804541862E-03   3.37176819475480E-02  -8.57405935277113E-17   0.00000000000000E+00   0.00000000000000E+00
      0.00000000000000E+00   0.00000000000000E+00  -2.53305528506633E-02  -8.38712909688461E-03  -3.37176819475479E-02
      8.57405935277110E-17
      2.00000000000000E-01
      1.40000000000000E+00   1.40000000000000E+00   0.00000000000000E+00   0.00000000000000E+00   1.54073565876607E-02
      5.14048092359294E-03   2.05478375112537E-02  -1.15967281089190E-16   0.00000000000000E+00   0.00000000000000E+00
      0.00000000000000E+00   0.00000000000000E+00  -1.54399413771933E-02  -5.10789613406044E-03  -2.05478375112537E-02
      1.15967281089190E-16
      2.20000000000000E-01
      1.24000000000000E+00   1.24000000000000E+00   0.00000000000000E+00   0.00000000000000E+00   7.78520707643140E-03
      2.60256539228366E-03   1.03877724687151E-02  -1.67475686587244E-16   0.00000000000000E+00   0.00000000000000E+00
      0.00000000000000E+00   0.00000000000000E+00  -7.80851540224945E-03  -2.57925706646560E-03  -1.03877724687150E-02
      1.67475686587244E-16
      2.40000000000000E-01
      1.08000000000000E+00   1.08000000000000E+00   0.00000000000000E+00   0.00000000000000E+00   2.69577176409036E-03
      9.05344498630072E-04   3.60111626272044E-03  -2.79534095988068E-16   0.00000000000000E+00   0.00000000000000E+00
      0.00000000000000E+00   0.00000000000000E+00  -2.70933952524482E-03  -8.91776737475618E-04  -3.60111626272044E-03
      2.79534095988069E-16
      2.60000000000000E-01
      9.20000000000000E-01   9.20000000000000E-01   0.00000000000000E+00   0.00000000000000E+00   3.00165659068421E-04
      1.02669047085019E-04   4.02834706153439E-04  -6.94614634394078E-16   0.00000000000000E+00   0.00000000000000E+00
      0.00000000000000E+00   0.00000000000000E+00  -3.04007433745761E-04  -9.88272724076794E-05  -4.02834706153441E-04
      6.94614634394079E-16
      2.80000000000000E-01
      7.60000000000000E-01   7.60000000000000E-01   0.00000000000000E+00   0.00000000000000E+00   1.46436305718159E-06
      5.15347315480563E-07   1.97971037266215E-06  -2.44787114084821E-15   0.00000000000000E+00   0.00000000000000E+00
      0.00000000000000E+00   0.00000000000000E+00  -1.49931658332093E-06  -4.80393789341241E-07  -1.97971037266217E-06
      2.44787114084819E-15
      3.00000000000000E-01
      6.00000000000000E-01   6.00000000000000E-01   0.00000000000000E+00   0.00000000000000E+00   3.02761193720814E-09
      1.07741268439497E-09   4.10502462160310E-09  -4.05600460064494E-15   0.00000000000000E+00   0.00000000000000E+00
      0.00000000000000E+00   0.00000000000000E+00  -3.11173401891542E-09  -9.93290602687726E-10  -4.10502462160315E-09
      4.05600460064493E-15
      3.20000000000000E-01
      4.40000000000000E-01   4.40000000000000E-01   0.00000000000000E+00   0.00000000000000E+00   6.22303987928380E-12
      2.44264052491387E-12   8.66568040419767E-12  -5.19801876851434E-15   0.00000000000000E+00   0.00000000000000E+00
      0.00000000000000E+00   0.00000000000000E+00  -6.62391047674598E-12  -2.04176992745164E-12  -8.66568040419763E-12
      5.19801876851439E-15
      3.40000000000000E-01
      2.80000000000000E-01   2.80000000000000E-01   0.00000000000000E+00   0.00000000000000E+00   1.27866485888125E-14
      1.02516012015707E-14   2.30382497903831E-14  -6.14014461641143E-15   0.00000000000000E+00   0.00000000000000E+00
      0.00000000000000E+00   0.00000000000000E+00  -1.88427457787506E-14  -4.19550401163261E-15  -2.30382497903832E-14
      6.14014461641153E-15
      3.60000000000000E-01
      1.20000000000000E-01   1.20000000000000E-01   0.00000000000000E+00   0.00000000000000E+00   2.60156206435041E-17
      1.51623139796932E-16   1.77638760440436E-16  -6.94867208547933E-15   0.00000000000000E+00   0.00000000000000E+00
      0.00000000000000E+00   0.00000000000000E+00  -1.69102225362744E-16  -8.53653507769441E-18  -1.77638760440439E-16
      6.94867208547931E-15
      3.80000000000000E-01
     -4.00000000000005E-02  -4.00000000000005E-02   0.00000000000000E+00   0.00000000000000E+00  -2.00926022758568E-19
     -1.38908678771113E-17  -1.40917938998699E-17  -7.67371291296705E-15   0.00000000000000E+00   0.00000000000000E+00
      0.00000000000000E+00   0.00000000000000E+00   1.40258558553872E-17   6.59380444829071E-20   1.40917938998701E-17
      7.67371291296702E-15
      4.00000000000000E-01
     -2.00000000000001E-01  -2.00000000000001E-01   0.00000000000000E+00   0.00000000000000E+00  -2.53709841269617E-19
     -1.77654370506474E-16  -1.77908080347744E-16  -8.33997405703192E-15   0.00000000000000E+00   0.00000000000000E+00
      0.00000000000000E+00   0.00000000000000E+00   1.77824823633696E-16   8.32567140533663E-20   1.77908080347750E-16
      8.33997405703177E-15
      4.20000000000000E-01
     -3.60000000000001E-01  -3.60000000000001E-01   0.00000000000000E+00   0.00000000000000E+00  -2.54042989955460E-19
     -6.12713115129911E-16  -6.12967158119866E-16  -8.95474565394068E-15   0.00000000000000E+00   0.00000000000000E+00
      0.00000000000000E+00   0.00000000000000E+00   6.12883789238697E-16   8.33688811594312E-20   6.12967158119857E-16
      8.95474565394064E-15
      4.40000000000000E-01
     -5.20000000000001E-01  -5.20000000000001E-01   0.00000000000000E+00   0.00000000000000E+00  -2.54274816409970E-19
     -7.81550862483056E-16  -7.81805137299466E-16  -9.52725186482595E-15   0.00000000000000E+00   0.00000000000000E+00
      0.00000000000000E+00   0.00000000000000E+00   7.81721689628829E-16   8.34476706297503E-20   7.81805137299459E-16
      9.52725186482589E-15
      4.60000000000000E-01
     -6.80000000000001E-01  -6.80000000000001E-01   0.00000000000000E+00   0.00000000000000E+00  -2.54492229916040E-19
     -8.07717775040381E-16  -8.07972267270297E-16  -1.00684209719989E-14   0.00000000000000E+00   0.00000000000000E+00
      0.00000000000000E+00   0.00000000000000E+00   8.07888745708657E-16   8.35215616430674E-20   8.07972267270300E-16
      1.00684209719988E-14
      4.80000000000000E-01
     -8.40000000000001E-01  -8.40000000000001E-01   0.00000000000000E+00   0.00000000000000E+00  -2.54699570823896E-19
     -8.72839794656786E-16  -8.73094494227610E-16  -1.05842020374801E-14   0.00000000000000E+00   0.00000000000000E+00
      0.00000000000000E+00   0.00000000000000E+00   8.73010902198303E-16   8.35920293112300E-20   8.73094494227614E-16
      1.05842020374804E-14
      5.00000000000000E-01
     -1.00000000000000E+00  -1.00000000000000E+00   0.00000000000000E+00   0.00000000000000E+00  -2.54899253680005E-19
     -1.12763095192174E-15  -1.12788585117542E-15  -1.10761069329600E-14   0.00000000000000E+00   0.00000000000000E+00
      0.00000000000000E+00   0.00000000000000E+00   1.12780219127881E-15   8.36598965958042E-20   1.12788585117541E-15
      1.10761069329601E-14
      5.20000000000000E-01
     -1.16000000000000E+00  -1.16000000000000E+00   0.00000000000000E+00   0.00000000000000E+00  -2.55091163054116E-19
     -1.45755711296952E-15  -1.45781220413258E-15  -1.15453819146230E-14   0.00000000000000E+00   0.00000000000000E+00
      0.00000000000000E+00   0.00000000000000E+00   1.45772847901275E-15   8.37251198492197E-20   1.45781220413260E-15
      1.15453819146232E-14
      5.40000000000000E-01
     -1.32000000000000E+00  -1.32000000000000E+00   0.00000000000000E+00   0.00000000000000E+00  -2.55274694608094E-19
     -1.57518825893182E-15  -1.57544353362643E-15  -1.19951692740701E-14   0.00000000000000E+00   0.00000000000000E+00
      0.00000000000000E+00   0.00000000000000E+00   1.57535974613437E-15   8.37874920525134E-20   1.57544353362643E-15
      1.19951692740698E-14
      5.60000000000000E-01
     -1.48000000000000E+00  -1.48000000000000E+00   0.00000000000000E+00   0.00000000000000E+00  -2.55450614695032E-19
     -1.59867828964190E-15  -1.59893374025659E-15  -1.24292185482024E-14   0.00000000000000E+00   0.00000000000000E+00
      0.00000000000000E+00   0.00000000000000E+00   1.59884989298033E-15   8.38472762730063E-20   1.59893374025661E-15
      1.24292185482023E-14
      5.80000000000000E-01
     -1.64000000000000E+00  -1.64000000000000E+00   0.00000000000000E+00   0.00000000000000E+00  -2.55620763913779E-19
     -1.62620631994374E-15  -1.62646194070765E-15  -1.28499181979749E-14   0.00000000000000E+00   0.00000000000000E+00
      0.00000000000000E+00   0.00000000000000E+00   1.62637803560868E-15   8.39050989930858E-20   1.62646194070767E-15
      1.28499181979749E-14
      6.00000000000000E-01
     -1.80000000000000E+00  -1.80000000000000E+00   0.00000000000000E+00   0.00000000000000E+00  -2.55786720338911E-19
     -1.72861672253127E-15  -1.72887250925161E-15  -1.32579947239499E-14   0.00000000000000E+00   0.00000000000000E+00
      0.00000000000000E+00   0.00000000000000E+00   1.72878854775390E-15   8.39614977445221E-20   1.72887250925164E-15
      1.32579947239498E-14
      6.20000000000000E-01
     -1.96000000000000E+00  -1.96000000000000E+00   0.00000000000000E+00   0.00000000000000E+00  -2.55948967035114E-19
     -1.98169670724437E-15  -1.98195265621140E-15  -1.36534775632185E-14   0.00000000000000E+00   0.00000000000000E+00
      0.00000000000000E+00   0.00000000000000E+00   1.98186863957427E-15   8.40166370853622E-20   1.98195265621135E-15
      1.36534775632185E-14
      6.40000000000000E-01
     -2.12000000000000E+00  -2.12000000000000E+00   0.00000000000000E+00   0.00000000000000E+00  -2.56107028070706E-19
     -2.24850475615753E-15  -2.24876086318560E-15  -1.40368077399430E-14   0.00000000000000E+00   0.00000000000000E+00
      0.00000000000000E+00   0.00000000000000E+00   2.24867679283388E-15   8.40703517241389E-20   2.24876086318560E-15
      1.40368077399432E-14
      6.60000000000000E-01
     -2.28000000000000E+00  -2.28000000000000E+00   0.00000000000000E+00   0.00000000000000E+00  -2.56260327828540E-19
     -2.36135915611450E-15  -2.36161541644233E-15  -1.44092558852710E-14   0.00000000000000E+00   0.00000000000000E+00
      0.00000000000000E+00   0.00000000000000E+00   2.36153129399656E-15   8.41224457825013E-20   2.36161541644234E-15
      1.44092558852710E-14
      6.80000000000000E-01
     -2.44000000000000E+00  -2.44000000000000E+00   0.00000000000000E+00   0.00000000000000E+00  -2.56408965526015E-19
     -2.38956998237094E-15  -2.38982639133647E-15  -1.47724463730128E-14   0.00000000000000E+00   0.00000000000000E+00
      0.00000000000000E+00   0.00000000000000E+00   2.38974221838190E-15   8.41729545261279E-20   2.38982639133643E-15
      1.47724463730126E-14
      7.00000000000000E-01
     -2.60000000000000E+00  -2.60000000000000E+00   0.00000000000000E+00   0.00000000000000E+00  -2.56553748959088E-19
     -2.40440357839130E-15  -2.40466013214026E-15  -1.51276294159904E-14   0.00000000000000E+00   0.00000000000000E+00
      0.00000000000000E+00   0.00000000000000E+00   2.40457590998720E-15   8.42221530800808E-20   2.40466013214028E-15
      1.51276294159902E-14
      7.20000000000000E-01
     -2.76000000000000E+00  -2.76000000000000E+00   0.00000000000000E+00   0.00000000000000E+00  -2.56695685399784E-19
     -2.44124223144401E-15  -2.44149892712941E-15  -1.54753687278399E-14   0.00000000000000E+00   0.00000000000000E+00
      0.00000000000000E+00   0.00000000000000E+00   2.44141465674508E-15   8.42703842696231E-20   2.44149892712935E-15
      1.54753687278397E-14
      7.40000000000000E-01
     -2.92000000000000E+00  -2.92000000000000E+00   0.00000000000000E+00   0.00000000000000E+00  -2.56835456131479E-19
     -2.55080722056030E-15  -2.55106405601643E-15  -1.58157034868254E-14   0.00000000000000E+00   0.00000000000000E+00
      0.00000000000000E+00   0.00000000000000E+00   2.55097973813583E-15   8.43178804691330E-20   2.55106405601630E-15
      1.58157034868255E-14
      7.60000000000000E-01
     -3.08000000000000E+00  -3.08000000000000E+00   0.00000000000000E+00   0.00000000000000E+00  -2.56973163681295E-19
     -2.77211636345889E-15  -2.77237333662257E-15  -1.61485387469748E-14   0.00000000000000E+00   0.00000000000000E+00
      0.00000000000000E+00   0.00000000000000E+00   2.77228897194621E-15   8.43646763750146E-20   2.77237333662259E-15
      1.61485387469749E-14
      7.80000000000000E-01
     -3.24000000000000E+00  -3.24000000000000E+00   0.00000000000000E+00   0.00000000000000E+00  -2.57108432195332E-19
     -3.00899704290771E-15  -3.00925415133991E-15  -1.64740213185737E-14   0.00000000000000E+00   0.00000000000000E+00
      0.00000000000000E+00   0.00000000000000E+00   3.00916974069811E-15   8.44106417719199E-20   3.00925415133988E-15
      1.64740213185735E-14
      8.00000000000000E-01
     -3.40000000000000E+00  -3.40000000000000E+00   0.00000000000000E+00   0.00000000000000E+00  -2.57240790805066E-19
     -3.13632357101144E-15  -3.13658081180224E-15  -1.67926925046346E-14   0.00000000000000E+00   0.00000000000000E+00
      0.00000000000000E+00   0.00000000000000E+00   3.13649635618602E-15   8.44556162517469E-20   3.13658081180227E-15
      1.67926925046348E-14
      8.20000000000000E-01
     -3.56000000000000E+00  -3.56000000000000E+00   0.00000000000000E+00   0.00000000000000E+00  -2.57370076024780E-19
     -3.17768012055460E-15  -3.17793749063062E-15  -1.71053383982489E-14   0.00000000000000E+00   0.00000000000000E+00
      0.00000000000000E+00   0.00000000000000E+00   3.17785299108523E-15   8.44995453599658E-20   3.17793749063059E-15
      1.71053383982488E-14
      8.40000000000000E-01
     -3.72000000000000E+00  -3.72000000000000E+00   0.00000000000000E+00   0.00000000000000E+00  -2.57496569012415E-19
     -3.19174369089777E-15  -3.19200118746678E-15  -1.74126909338843E-14   0.00000000000000E+00   0.00000000000000E+00
      0.00000000000000E+00   0.00000000000000E+00   3.19191664494170E-15   8.45425251600952E-20   3.19200118746686E-15
      1.74126909338847E-14
      8.60000000000000E-01
     -3.88000000000000E+00  -3.88000000000000E+00   0.00000000000000E+00   0.00000000000000E+00  -2.57620840143155E-19
     -3.20679777152383E-15  -3.20705539236397E-15  -1.77152124213447E-14   0.00000000000000E+00   0.00000000000000E+00
      0.00000000000000E+00   0.00000000000000E+00   3.20697080761416E-15   8.45847497400240E-20   3.20705539236390E-15
      1.77152124213445E-14
      8.80000000000000E-01
     -4.04000000000000E+00  -4.04000000000000E+00   0.00000000000000E+00   0.00000000000000E+00  -2.57743476067120E-19
     -3.24478894990654E-15  -3.24504669338261E-15  -1.80130583366794E-14   0.00000000000000E+00   0.00000000000000E+00
      0.00000000000000E+00   0.00000000000000E+00   3.24496206696383E-15   8.46264188205795E-20   3.24504669338265E-15
      1.80130583366794E-14
      9.00000000000000E-01
     -4.20000000000000E+00  -4.20000000000000E+00   0.00000000000000E+00   0.00000000000000E+00  -2.57864849050246E-19
     -3.34145305853165E-15  -3.34171092338070E-15  -1.83061770656962E-14   0.00000000000000E+00   0.00000000000000E+00
      0.00000000000000E+00   0.00000000000000E+00   3.34162625572127E-15   8.46676594712974E-20   3.34171092338074E-15
      1.83061770656963E-14
      9.20000000000000E-01
     -4.36000000000000E+00  -4.36000000000000E+00   0.00000000000000E+00   0.00000000000000E+00  -2.57985004921243E-19
     -3.52467251835891E-15  -3.52493050336383E-15  -1.85944731903287E-14   0.00000000000000E+00   0.00000000000000E+00
      0.00000000000000E+00   0.00000000000000E+00   3.52484579487674E-15   8.47084871770426E-20   3.52493050336392E-15
      1.85944731903286E-14
      9.40000000000001E-01
     -4.52000000000000E+00  -4.52000000000000E+00   0.00000000000000E+00   0.00000000000000E+00  -2.58103700016666E-19
     -3.74152008526517E-15  -3.74177818896518E-15  -1.88779660065994E-14   0.00000000000000E+00   0.00000000000000E+00
      0.00000000000000E+00   0.00000000000000E+00   3.74169344014780E-15   8.47488174244039E-20   3.74177818896522E-15
      1.88779660065996E-14
      9.60000000000001E-01
     -4.68000000000000E+00  -4.68000000000000E+00   0.00000000000000E+00   0.00000000000000E+00  -2.58220574589345E-19
     -3.89211961630915E-15  -3.89237783688373E-15  -1.91568745812948E-14   0.00000000000000E+00   0.00000000000000E+00
      0.00000000000000E+00   0.00000000000000E+00   3.89229304835660E-15   8.47885271522218E-20   3.89237783688375E-15
      1.91568745812948E-14
      9.80000000000001E-01
     -4.84000000000000E+00  -4.84000000000000E+00   0.00000000000000E+00   0.00000000000000E+00  -2.58335376410000E-19
     -3.95745611979002E-15  -3.95771445516643E-15  -1.94315866715404E-14   0.00000000000000E+00   0.00000000000000E+00
      0.00000000000000E+00   0.00000000000000E+00   3.95762962763512E-15   8.48275313528779E-20   3.95771445516647E-15
      1.94315866715403E-14
      1.00000000000000E+00
     -5.00000000000000E+00  -5.00000000000000E+00   0.00000000000000E+00   0.00000000000000E+00  -2.58448104921294E-19
     -3.98006483755401E-15  -3.98032328565894E-15  -1.97025387147816E-14   0.00000000000000E+00   0.00000000000000E+00
      0.00000000000000E+00   0.00000000000000E+00   3.98023841982870E-15   8.48658303638293E-20   3.98032328565906E-15
      1.97025387147816E-14
}
