DF-ISE text

Info {
  version   = 1.0
  type      = xyplot
  datasets  = [
    "time"
    "n1contact OuterVoltage" "n1contact InnerVoltage" "n1contact QuasiFermiPotential" "n1contact DisplacementCurrent" "n1contact eCurrent"
    "n1contact hCurrent" "n1contact TotalCurrent" "n1contact Charge" "n2contact OuterVoltage" "n2contact InnerVoltage"
    "n2contact QuasiFermiPotential" "n2contact DisplacementCurrent" "n2contact eCurrent" "n2contact hCurrent" "n2contact TotalCurrent"
    "n2contact Charge" ]
  functions = [
    Time
    OuterVoltage InnerVoltage QuasiFermiPotential DisplacementCurrent eCurrent
    hCurrent TotalCurrent Charge OuterVoltage InnerVoltage
    QuasiFermiPotential DisplacementCurrent eCurrent hCurrent TotalCurrent
    Charge ]
}

Data {
      0.00000000000000E+00
      0.00000000000000E+00   0.00000000000000E+00   0.00000000000000E+00   0.00000000000000E+00   4.41932045635410E-26
      8.70009349861112E-27   5.28932980621521E-26  -7.49842869654683E-15   0.00000000000000E+00   0.00000000000000E+00
      0.00000000000000E+00   0.00000000000000E+00  -4.41932045250659E-26  -8.70009353708694E-27  -5.28932980621529E-26
      7.49842869654688E-15
      0.00000000000000E+00
      0.00000000000000E+00   0.00000000000000E+00   0.00000000000000E+00   0.00000000000000E+00  -4.42535775369868E-26
     -1.35312516710440E-26  -5.77848292080308E-26  -7.49842824322386E-15   0.00000000000000E+00   0.00000000000000E+00
      0.00000000000000E+00   0.00000000000000E+00   4.42535785998151E-26   1.35312506082139E-26   5.77848292080291E-26
      7.49842824322371E-15
      0.00000000000000E+00
      0.00000000000000E+00   0.00000000000000E+00   0.00000000000000E+00   0.00000000000000E+00   2.63831016331927E-26
      7.55745449154127E-27   3.39405561247340E-26  -7.49842824322366E-15   0.00000000000000E+00   0.00000000000000E+00
      0.00000000000000E+00   0.00000000000000E+00  -2.63831016026476E-26  -7.55745452208597E-27  -3.39405561247336E-26
      7.49842824322350E-15
      1.00000000000000E-01
      1.00000000000000E-03   1.00000000000000E-03   0.00000000000000E+00   0.00000000000000E+00   1.00137836257179E-20
      3.70053753710305E-21   1.37143211628210E-20  -7.49399875803065E-15   0.00000000000000E+00   0.00000000000000E+00
      0.00000000000000E+00   0.00000000000000E+00  -1.03762275835737E-20  -3.33809357924742E-21  -1.37143211628211E-20
      7.49399875803063E-15
      2.00000000000000E-01
      2.00000000000000E-03   2.00000000000000E-03   0.00000000000000E+00   0.00000000000000E+00   2.04224642119599E-20
      7.53537997922386E-21   2.79578441911838E-20  -7.48956691739776E-15   0.00000000000000E+00   0.00000000000000E+00
      0.00000000000000E+00   0.00000000000000E+00  -2.11500174851583E-20  -6.80782670602562E-21  -2.79578441911839E-20
      7.48956691739778E-15
      3.00000000000000E-01
      3.00000000000000E-03   3.00000000000000E-03   0.00000000000000E+00   0.00000000000000E+00   3.12414675852645E-20
      1.15098151515602E-20   4.27512827368247E-20  -7.48513271772496E-15   0.00000000000000E+00   0.00000000000000E+00
      0.00000000000000E+00   0.00000000000000E+00  -3.23369447842842E-20  -1.04143379525413E-20  -4.27512827368255E-20
      7.48513271772499E-15
      4.00000000000000E-01
      4.00000000000000E-03   4.00000000000000E-03   0.00000000000000E+00   0.00000000000000E+00   4.24871477582914E-20
      1.56294484064733E-20   5.81165961647647E-20  -7.48069615536416E-15   0.00000000000000E+00   0.00000000000000E+00
      0.00000000000000E+00   0.00000000000000E+00  -4.39535148893787E-20  -1.41630812753851E-20  -5.81165961647638E-20
      7.48069615536411E-15
      5.00000000000000E-01
      5.00000000000000E-03   5.00000000000000E-03   0.00000000000000E+00   0.00000000000000E+00   5.41760141362543E-20
      1.98999389106015E-20   7.40759530468558E-20  -7.47625722663395E-15   0.00000000000000E+00   0.00000000000000E+00
      0.00000000000000E+00   0.00000000000000E+00  -5.60163908118705E-20  -1.80595622349853E-20  -7.40759530468557E-20
      7.47625722663398E-15
      6.00000000000000E-01
      6.00000000000000E-03   6.00000000000000E-03   0.00000000000000E+00   0.00000000000000E+00   6.63257446235152E-20
      2.43273344546807E-20   9.06530790781959E-20  -7.47181592780939E-15   0.00000000000000E+00   0.00000000000000E+00
      0.00000000000000E+00   0.00000000000000E+00  -6.85434063421403E-20  -2.21096727360566E-20  -9.06530790781970E-20
      7.47181592780942E-15
      7.00000000000000E-01
      7.00000000000000E-03   7.00000000000000E-03   0.00000000000000E+00   0.00000000000000E+00   7.89547114957249E-20
      2.89179147484589E-20   1.07872626244184E-19  -7.46737225512440E-15   0.00000000000000E+00   0.00000000000000E+00
      0.00000000000000E+00   0.00000000000000E+00  -8.15530919923319E-20  -2.63195342518501E-20  -1.07872626244182E-19
      7.46737225512454E-15
      8.00000000000000E-01
      8.00000000000000E-03   8.00000000000000E-03   0.00000000000000E+00   0.00000000000000E+00   9.20814412233370E-20
      3.36780203226868E-20   1.25759461546024E-19  -7.46292620477109E-15   0.00000000000000E+00   0.00000000000000E+00
      0.00000000000000E+00   0.00000000000000E+00  -9.50641348920227E-20  -3.06953266539998E-20  -1.25759461546023E-19
      7.46292620477106E-15
      9.00000000000000E-01
      9.00000000000000E-03   9.00000000000000E-03   0.00000000000000E+00   0.00000000000000E+00   1.05725787264446E-19
      3.86144299583176E-20   1.44340217222763E-19  -7.45847777289943E-15   0.00000000000000E+00   0.00000000000000E+00
      0.00000000000000E+00   0.00000000000000E+00  -1.09096551654712E-19  -3.52436655680540E-20  -1.44340217222766E-19
      7.45847777289931E-15
      1.00000000000000E+00
      1.00000000000000E-02   1.00000000000000E-02   0.00000000000000E+00   0.00000000000000E+00   1.19907897725052E-19
      4.37340240267921E-20   1.63641921751844E-19  -7.45402695561701E-15   0.00000000000000E+00   0.00000000000000E+00
      0.00000000000000E+00   0.00000000000000E+00  -1.23670656113287E-19  -3.99712656385567E-20  -1.63641921751844E-19
      7.45402695561693E-15
      0.00000000000000E+00
      1.00000000000000E-02   1.00000000000000E-02   0.00000000000000E+00   0.00000000000000E+00   1.19907932983010E-19
      4.37340367361540E-20   1.63641969719164E-19  -7.45402695561432E-15   0.00000000000000E+00   0.00000000000000E+00
      0.00000000000000E+00   0.00000000000000E+00  -1.23670691371282E-19  -3.99712783478808E-20  -1.63641969719163E-19
      7.45402695561424E-15
      1.00000000000000E-01
      1.90000000000000E-02   1.90000000000000E-02   0.00000000000000E+00   0.00000000000000E+00   2.75548104062384E-19
      9.93498367472030E-20   3.74897940809587E-19  -7.41386159300769E-15   0.00000000000000E+00   0.00000000000000E+00
      0.00000000000000E+00   0.00000000000000E+00  -2.83044075349181E-19  -9.18538654604015E-20  -3.74897940809582E-19
      7.41386159300779E-15
      2.00000000000000E-01
      2.80000000000000E-02   2.80000000000000E-02   0.00000000000000E+00   0.00000000000000E+00   4.95980070413310E-19
      1.77030741181890E-19   6.73010811595199E-19  -7.37349964050285E-15   0.00000000000000E+00   0.00000000000000E+00
      0.00000000000000E+00   0.00000000000000E+00  -5.07676069441693E-19  -1.65334742153497E-19  -6.73010811595189E-19
      7.37349964050283E-15
      3.00000000000000E-01
      3.70000000000000E-02   3.70000000000000E-02   0.00000000000000E+00   0.00000000000000E+00   8.08178910031518E-19
      2.85926004956167E-19   1.09410491498769E-18  -7.33293776830126E-15   0.00000000000000E+00   0.00000000000000E+00
      0.00000000000000E+00   0.00000000000000E+00  -8.24698888234612E-19  -2.69406026753086E-19  -1.09410491498770E-18
      7.33293776830131E-15
      4.00000000000000E-01
      4.60000000000000E-02   4.60000000000000E-02   0.00000000000000E+00   0.00000000000000E+00   1.25034902653754E-18
      4.38957659418753E-19   1.68930668595630E-18  -7.29217232890336E-15   0.00000000000000E+00   0.00000000000000E+00
      0.00000000000000E+00   0.00000000000000E+00  -1.27250358124557E-18  -4.16803104710761E-19  -1.68930668595633E-18
      7.29217232890348E-15
      5.00000000000000E-01
      5.50000000000000E-02   5.50000000000000E-02   0.00000000000000E+00   0.00000000000000E+00   1.87660246003790E-18
      6.54387693159195E-19   2.53099015319709E-18  -7.25119934035675E-15   0.00000000000000E+00   0.00000000000000E+00
      0.00000000000000E+00   0.00000000000000E+00  -1.90542600385389E-18  -6.25564149343276E-19  -2.53099015319717E-18
      7.25119934035675E-15
      6.00000000000000E-01
      6.40000000000000E-02   6.40000000000000E-02   0.00000000000000E+00   0.00000000000000E+00   2.76357828866451E-18
      9.58033989416424E-19   3.72161227808094E-18  -7.21001447061215E-15   0.00000000000000E+00   0.00000000000000E+00
      0.00000000000000E+00   0.00000000000000E+00  -2.80037558282027E-18  -9.21236695260698E-19  -3.72161227808097E-18
      7.21001447061220E-15
      7.00000000000000E-01
      7.30000000000000E-02   7.30000000000000E-02   0.00000000000000E+00   0.00000000000000E+00   4.01982295433826E-18
      1.38640871384181E-18   5.40623166818007E-18  -7.16861302321932E-15   0.00000000000000E+00   0.00000000000000E+00
      0.00000000000000E+00   0.00000000000000E+00  -4.06622712429318E-18  -1.34000454388701E-18  -5.40623166818019E-18
      7.16861302321932E-15
      8.00000000000000E-01
      8.20000000000000E-02   8.20000000000000E-02   0.00000000000000E+00   0.00000000000000E+00   5.79907308542235E-18
      1.99116022122064E-18   7.79023330664299E-18  -7.12698992462731E-15   0.00000000000000E+00   0.00000000000000E+00
      0.00000000000000E+00   0.00000000000000E+00  -5.85711775268031E-18  -1.93311555396281E-18  -7.79023330664312E-18
      7.12698992462737E-15
      9.00000000000000E-01
      9.10000000000000E-02   9.10000000000000E-02   0.00000000000000E+00   0.00000000000000E+00   8.31907262438845E-18
      2.84536311144403E-18   1.11644357358325E-17  -7.08513971337604E-15   0.00000000000000E+00   0.00000000000000E+00
      0.00000000000000E+00   0.00000000000000E+00  -8.39128143088419E-18  -2.77315430494816E-18  -1.11644357358323E-17
      7.08513971337608E-15
      1.00000000000000E+00
      1.00000000000000E-01   1.00000000000000E-01   0.00000000000000E+00   0.00000000000000E+00   1.18882131919691E-17
      4.05242018404041E-18   1.59406333760095E-17  -7.04305653147736E-15   0.00000000000000E+00   0.00000000000000E+00
      0.00000000000000E+00   0.00000000000000E+00  -1.19777107944987E-17  -3.96292258151088E-18  -1.59406333760096E-17
      7.04305653147725E-15
      0.00000000000000E+00
      1.00000000000000E-01   1.00000000000000E-01   0.00000000000000E+00   0.00000000000000E+00   1.18882130214751E-17
      4.05242012855226E-18   1.59406331500274E-17  -7.04305653147736E-15   0.00000000000000E+00   0.00000000000000E+00
      0.00000000000000E+00   0.00000000000000E+00  -1.19777106240047E-17  -3.96292252602272E-18  -1.59406331500274E-17
      7.04305653147725E-15
      2.00000000000000E-02
      1.18000000000000E-01   1.18000000000000E-01   0.00000000000000E+00   0.00000000000000E+00   2.41029765634794E-17
      8.17126974704915E-18   3.22742463105285E-17  -6.95816580725007E-15   0.00000000000000E+00   0.00000000000000E+00
      0.00000000000000E+00   0.00000000000000E+00  -2.42395503788183E-17  -8.03469593171034E-18  -3.22742463105287E-17
      6.95816580725011E-15
      4.00000000000000E-02
      1.36000000000000E-01   1.36000000000000E-01   0.00000000000000E+00   0.00000000000000E+00   4.86057015183195E-17
      1.64101197677250E-17   6.50158212860445E-17  -6.87226279802033E-15   0.00000000000000E+00   0.00000000000000E+00
      0.00000000000000E+00   0.00000000000000E+00  -4.88131828672019E-17  -1.62026384188427E-17  -6.50158212860446E-17
      6.87226279802035E-15
      6.00000000000000E-02
      1.54000000000000E-01   1.54000000000000E-01   0.00000000000000E+00   0.00000000000000E+00   9.77572912155126E-17
      3.29019473460951E-17   1.30659238561608E-16  -6.78528613477808E-15   0.00000000000000E+00   0.00000000000000E+00
      0.00000000000000E+00   0.00000000000000E+00  -9.80720084705697E-17  -3.25872300910352E-17  -1.30659238561605E-16
      6.78528613477816E-15
      8.00000000000000E-02
      1.72000000000000E-01   1.72000000000000E-01   0.00000000000000E+00   0.00000000000000E+00   1.96354037885754E-16
      6.59316437002086E-17   2.62285681585962E-16  -6.69716832642618E-15   0.00000000000000E+00   0.00000000000000E+00
      0.00000000000000E+00   0.00000000000000E+00  -1.96831426392243E-16  -6.54542551937192E-17  -2.62285681585962E-16
      6.69716832642617E-15
      1.00000000000000E-01
      1.90000000000000E-01   1.90000000000000E-01   0.00000000000000E+00   0.00000000000000E+00   3.94136037113096E-16
      1.32109274074843E-16   5.26245311187939E-16  -6.60783632031685E-15   0.00000000000000E+00   0.00000000000000E+00
      0.00000000000000E+00   0.00000000000000E+00  -3.94860866445565E-16  -1.31384444742369E-16  -5.26245311187934E-16
      6.60783632031693E-15
      1.20000000000000E-01
      2.08000000000000E-01   2.08000000000000E-01   0.00000000000000E+00   0.00000000000000E+00   7.90879720402695E-16
      2.64740272572025E-16   1.05561999297472E-15  -6.51721234476277E-15   0.00000000000000E+00   0.00000000000000E+00
      0.00000000000000E+00   0.00000000000000E+00  -7.91982000515896E-16  -2.63637992458813E-16  -1.05561999297471E-15
      6.51721234476265E-15
      1.40000000000000E-01
      2.26000000000000E-01   2.26000000000000E-01   0.00000000000000E+00   0.00000000000000E+00   1.58673167953921E-15
      5.30613040443387E-16   2.11734471998260E-15  -6.42521502522189E-15   0.00000000000000E+00   0.00000000000000E+00
      0.00000000000000E+00   0.00000000000000E+00  -1.58841155724692E-15  -5.28933162735731E-16  -2.11734471998265E-15
      6.42521502522188E-15
      1.60000000000000E-01
      2.44000000000000E-01   2.44000000000000E-01   0.00000000000000E+00   0.00000000000000E+00   3.18317516964115E-15
      1.06367013428170E-15   4.24684530392285E-15  -6.33176073583718E-15   0.00000000000000E+00   0.00000000000000E+00
      0.00000000000000E+00   0.00000000000000E+00  -3.18574219684342E-15  -1.06110310707942E-15  -4.24684530392283E-15
      6.33176073583722E-15
      1.80000000000000E-01
      2.62000000000000E-01   2.62000000000000E-01   0.00000000000000E+00   0.00000000000000E+00   6.38556153341143E-15
      2.13254457315914E-15   8.51810610657057E-15  -6.23676511252837E-15   0.00000000000000E+00   0.00000000000000E+00
      0.00000000000000E+00   0.00000000000000E+00  -6.38949716874855E-15  -2.12860893782194E-15  -8.51810610657049E-15
      6.23676511252834E-15
      2.00000000000000E-01
      2.80000000000000E-01   2.80000000000000E-01   0.00000000000000E+00   0.00000000000000E+00   1.28093732323143E-14
      4.27602401095623E-15   1.70853972432705E-14  -6.14014461640572E-15   0.00000000000000E+00   0.00000000000000E+00
      0.00000000000000E+00   0.00000000000000E+00  -1.28154313843460E-14  -4.26996585892421E-15  -1.70853972432702E-14
      6.14014461640587E-15
      2.20000000000000E-01
      2.98000000000000E-01   2.98000000000000E-01   0.00000000000000E+00   0.00000000000000E+00   2.56951542772799E-14
      8.57476747728916E-15   3.42699217545690E-14  -6.04181800155626E-15   0.00000000000000E+00   0.00000000000000E+00
      0.00000000000000E+00   0.00000000000000E+00  -2.57045250294737E-14  -8.56539672509524E-15  -3.42699217545689E-14
      6.04181800155626E-15
      2.40000000000000E-01
      3.16000000000000E-01   3.16000000000000E-01   0.00000000000000E+00   0.00000000000000E+00   5.15431897680871E-14
      1.71963250099643E-14   6.87395147780513E-14  -5.94170751435399E-15   0.00000000000000E+00   0.00000000000000E+00
      0.00000000000000E+00   0.00000000000000E+00  -5.15577696861025E-14  -1.71817450919485E-14  -6.87395147780511E-14
      5.94170751435391E-15
      2.60000000000000E-01
      3.34000000000000E-01   3.34000000000000E-01   0.00000000000000E+00   0.00000000000000E+00   1.03392520391657E-13
      3.44883643765748E-14   1.37880884768232E-13  -5.83973963658695E-15   0.00000000000000E+00   0.00000000000000E+00
      0.00000000000000E+00   0.00000000000000E+00  -1.03415365627513E-13  -3.44655191407131E-14  -1.37880884768226E-13
      5.83973963658684E-15
      2.80000000000000E-01
      3.52000000000000E-01   3.52000000000000E-01   0.00000000000000E+00   0.00000000000000E+00   2.07398323602527E-13
      6.91715272281882E-14   2.76569850830715E-13  -5.73584518404198E-15   0.00000000000000E+00   0.00000000000000E+00
      0.00000000000000E+00   0.00000000000000E+00  -2.07434421921964E-13  -6.91354289087520E-14  -2.76569850830716E-13
      5.73584518404203E-15
      3.00000000000000E-01
      3.70000000000000E-01   3.70000000000000E-01   0.00000000000000E+00   0.00000000000000E+00   4.16025442829028E-13
      1.38737989298814E-13   5.54763432127842E-13  -5.62995858495933E-15   0.00000000000000E+00   0.00000000000000E+00
      0.00000000000000E+00   0.00000000000000E+00  -4.16083051693229E-13  -1.38680380434603E-13  -5.54763432127832E-13
      5.62995858495929E-15
      3.20000000000000E-01
      3.88000000000000E-01   3.88000000000000E-01   0.00000000000000E+00   0.00000000000000E+00   8.34513125317065E-13
      2.78274357589793E-13   1.11278748290686E-12  -5.52201618535040E-15   0.00000000000000E+00   0.00000000000000E+00
      0.00000000000000E+00   0.00000000000000E+00  -8.34606131559317E-13  -2.78181351347553E-13  -1.11278748290687E-12
      5.52201618535045E-15
      3.40000000000000E-01
      4.06000000000000E-01   4.06000000000000E-01   0.00000000000000E+00   0.00000000000000E+00   1.67396010093922E-12
      5.58159151190943E-13   2.23211925213016E-12  -5.41195345499636E-15   0.00000000000000E+00   0.00000000000000E+00
      0.00000000000000E+00   0.00000000000000E+00  -1.67411225343274E-12  -5.58006998697422E-13  -2.23211925213016E-12
      5.41195345499622E-15
      3.60000000000000E-01
      4.24000000000000E-01   4.24000000000000E-01   0.00000000000000E+00   0.00000000000000E+00   3.35780641690764E-12
      1.11956136870172E-12   4.47736778560936E-12  -5.29970099338306E-15   0.00000000000000E+00   0.00000000000000E+00
      0.00000000000000E+00   0.00000000000000E+00  -3.35805904306533E-12  -1.11930874254406E-12  -4.47736778560939E-12
      5.29970099338291E-15
      3.80000000000000E-01
      4.42000000000000E-01   4.42000000000000E-01   0.00000000000000E+00   0.00000000000000E+00   6.73542122088850E-12
      2.24564520892481E-12   8.98106642981330E-12  -5.18517925527617E-15   0.00000000000000E+00   0.00000000000000E+00
      0.00000000000000E+00   0.00000000000000E+00  -6.73584750715078E-12  -2.24521892266247E-12  -8.98106642981326E-12
      5.18517925527604E-15
      4.00000000000000E-01
      4.60000000000000E-01   4.60000000000000E-01   0.00000000000000E+00   0.00000000000000E+00   1.35105279463108E-11
      4.50439532758507E-12   1.80149232738958E-11  -5.06829193155928E-15   0.00000000000000E+00   0.00000000000000E+00
      0.00000000000000E+00   0.00000000000000E+00  -1.35112597254784E-11  -4.50366354841786E-12  -1.80149232738962E-11
      5.06829193155928E-15
      4.20000000000000E-01
      4.78000000000000E-01   4.78000000000000E-01   0.00000000000000E+00   0.00000000000000E+00   2.71005557361289E-11
      9.03509986852766E-12   3.61356556046566E-11  -4.94891793860692E-15   0.00000000000000E+00   0.00000000000000E+00
      0.00000000000000E+00   0.00000000000000E+00  -2.71018343339727E-11  -9.03382127068353E-12  -3.61356556046563E-11
      4.94891793860703E-15
      4.40000000000000E-01
      4.96000000000000E-01   4.96000000000000E-01   0.00000000000000E+00   0.00000000000000E+00   5.43603467005638E-11
      1.81229827562422E-11   7.24833294568060E-11  -4.82690200198256E-15   0.00000000000000E+00   0.00000000000000E+00
      0.00000000000000E+00   0.00000000000000E+00  -5.43626204376580E-11  -1.81207090191485E-11  -7.24833294568065E-11
      4.82690200198251E-15
      4.60000000000000E-01
      5.14000000000000E-01   5.14000000000000E-01   0.00000000000000E+00   0.00000000000000E+00   1.09039578877944E-10
      3.63518012568747E-11   1.45391380134819E-10  -4.70204388851449E-15   0.00000000000000E+00   0.00000000000000E+00
      0.00000000000000E+00   0.00000000000000E+00  -1.09043691645359E-10  -3.63476884894552E-11  -1.45391380134815E-10
      4.70204388851448E-15
      4.80000000000000E-01
      5.32000000000000E-01   5.32000000000000E-01   0.00000000000000E+00   0.00000000000000E+00   2.18717616336429E-10
      7.29157038023209E-11   2.91633320138750E-10  -4.57408647347553E-15   0.00000000000000E+00   0.00000000000000E+00
      0.00000000000000E+00   0.00000000000000E+00  -2.18725174915894E-10  -7.29081452228552E-11  -2.91633320138750E-10
      4.57408647347559E-15
      5.00000000000000E-01
      5.50000000000000E-01   5.50000000000000E-01   0.00000000000000E+00   0.00000000000000E+00   4.38713155705708E-10
      1.46256251763158E-10   5.84969407468866E-10  -4.44270306184634E-15   0.00000000000000E+00   0.00000000000000E+00
      0.00000000000000E+00   0.00000000000000E+00  -4.38727249430711E-10  -1.46242158038168E-10  -5.84969407468879E-10
      4.44270306184637E-15
      5.20000000000000E-01
      5.68000000000000E-01   5.68000000000000E-01   0.00000000000000E+00   0.00000000000000E+00   8.79983170981786E-10
      2.93362996964955E-10   1.17334616794674E-09  -4.30748475148223E-15   0.00000000000000E+00   0.00000000000000E+00
      0.00000000000000E+00   0.00000000000000E+00  -8.80009788353873E-10  -2.93336379592893E-10  -1.17334616794677E-09
      4.30748475148229E-15
      5.40000000000000E-01
      5.86000000000000E-01   5.86000000000000E-01   0.00000000000000E+00   0.00000000000000E+00   1.76507922213956E-09
      5.88427412303414E-10   2.35350663444297E-09  -4.16792915965591E-15   0.00000000000000E+00   0.00000000000000E+00
      0.00000000000000E+00   0.00000000000000E+00  -1.76513004986604E-09  -5.88376584576864E-10  -2.35350663444290E-09
      4.16792915965596E-15
      5.60000000000000E-01
      6.04000000000000E-01   6.04000000000000E-01   0.00000000000000E+00   0.00000000000000E+00   3.54037366880676E-09
      1.18025522565006E-09   4.72062889445683E-09  -4.02343253296653E-15   0.00000000000000E+00   0.00000000000000E+00
      0.00000000000000E+00   0.00000000000000E+00  -3.54047163876364E-09  -1.18015725569324E-09  -4.72062889445688E-09
      4.02343253296659E-15
      5.80000000000000E-01
      6.22000000000000E-01   6.22000000000000E-01   0.00000000000000E+00   0.00000000000000E+00   7.10112719412892E-09
      2.36729599781869E-09   9.46842319194761E-09  -3.87328806876427E-15   0.00000000000000E+00   0.00000000000000E+00
      0.00000000000000E+00   0.00000000000000E+00  -7.10131750136184E-09  -2.36710569058582E-09  -9.46842319194766E-09
      3.87328806876430E-15
      6.00000000000000E-01
      6.40000000000000E-01   6.40000000000000E-01   0.00000000000000E+00   0.00000000000000E+00   1.42428079439511E-08
      4.74809670488126E-09   1.89909046488324E-08  -3.71669405929778E-15   0.00000000000000E+00   0.00000000000000E+00
      0.00000000000000E+00   0.00000000000000E+00  -1.42431799696608E-08  -4.74772467917156E-09  -1.89909046488324E-08
      3.71669405929755E-15
      6.20000000000000E-01
      6.58000000000000E-01   6.58000000000000E-01   0.00000000000000E+00   0.00000000000000E+00   2.85659190719469E-08
      9.52293799357886E-09   3.80888570655258E-08  -3.55277602092542E-15   0.00000000000000E+00   0.00000000000000E+00
      0.00000000000000E+00   0.00000000000000E+00  -2.85666500558785E-08  -9.52220700964720E-09  -3.80888570655257E-08
      3.55277602092545E-15
      6.40000000000000E-01
      6.76000000000000E-01   6.76000000000000E-01   0.00000000000000E+00   0.00000000000000E+00   5.72893292129726E-08
      1.90983299843512E-08   7.63876591973239E-08  -3.38062709866743E-15   0.00000000000000E+00   0.00000000000000E+00
      0.00000000000000E+00   0.00000000000000E+00  -5.72907713018213E-08  -1.90968878955020E-08  -7.63876591973232E-08
      3.38062709866748E-15
      6.60000000000000E-01
      6.94000000000000E-01   6.94000000000000E-01   0.00000000000000E+00   0.00000000000000E+00   1.14881499781295E-07
      3.82975203123034E-08   1.53179020093598E-07  -3.19937078243167E-15   0.00000000000000E+00   0.00000000000000E+00
      0.00000000000000E+00   0.00000000000000E+00  -1.14884353491046E-07  -3.82946666025496E-08  -1.53179020093596E-07
      3.19937078243173E-15
      6.80000000000000E-01
      7.12000000000000E-01   7.12000000000000E-01   0.00000000000000E+00   0.00000000000000E+00   2.30321008893990E-07
      7.67808473397300E-08   3.07101856233720E-07  -3.00824995111573E-15   0.00000000000000E+00   0.00000000000000E+00
      0.00000000000000E+00   0.00000000000000E+00  -2.30326668225849E-07  -7.67751880078700E-08  -3.07101856233719E-07
      3.00824995111570E-15
      7.00000000000000E-01
      7.30000000000000E-01   7.30000000000000E-01   0.00000000000000E+00   0.00000000000000E+00   4.61569793103871E-07
      1.53870441315072E-07   6.15440234418943E-07  -2.80674799350890E-15   0.00000000000000E+00   0.00000000000000E+00
      0.00000000000000E+00   0.00000000000000E+00  -4.61581029453716E-07  -1.53859204965217E-07  -6.15440234418932E-07
      2.80674799350888E-15
      7.20000000000000E-01
      7.48000000000000E-01   7.48000000000000E-01   0.00000000000000E+00   0.00000000000000E+00   9.24250307125596E-07
      3.08109590337230E-07   1.23235989746283E-06  -2.59475362568485E-15   0.00000000000000E+00   0.00000000000000E+00
      0.00000000000000E+00   0.00000000000000E+00  -9.24272612997557E-07  -3.08087284465258E-07  -1.23235989746281E-06
      2.59475362568483E-15
      7.40000000000000E-01
      7.66000000000000E-01   7.66000000000000E-01   0.00000000000000E+00   0.00000000000000E+00   1.84778290520243E-06
      6.15974836678054E-07   2.46375774188048E-06  -2.37279312470886E-15   0.00000000000000E+00   0.00000000000000E+00
      0.00000000000000E+00   0.00000000000000E+00  -1.84782708806775E-06  -6.15930653812696E-07  -2.46375774188045E-06
      2.37279312470886E-15
      7.60000000000000E-01
      7.84000000000000E-01   7.84000000000000E-01   0.00000000000000E+00   0.00000000000000E+00   3.68264700892302E-06
      1.22762529021984E-06   4.91027229914285E-06  -2.14236958492433E-15   0.00000000000000E+00   0.00000000000000E+00
      0.00000000000000E+00   0.00000000000000E+00  -3.68273402209191E-06  -1.22753827705082E-06  -4.91027229914274E-06
      2.14236958492435E-15
      7.80000000000000E-01
      8.02000000000000E-01   8.02000000000000E-01   0.00000000000000E+00   0.00000000000000E+00   7.29557541721874E-06
      2.43194558893795E-06   9.72752100615669E-06  -1.90644906382331E-15   0.00000000000000E+00   0.00000000000000E+00
      0.00000000000000E+00   0.00000000000000E+00  -7.29574472503434E-06  -2.43177628112216E-06  -9.72752100615650E-06
      1.90644906382328E-15
      8.00000000000000E-01
      8.20000000000000E-01   8.20000000000000E-01   0.00000000000000E+00   0.00000000000000E+00   1.42913464943332E-05
      4.76372544876532E-06   1.90550719430985E-05  -1.67005434475104E-15   0.00000000000000E+00   0.00000000000000E+00
      0.00000000000000E+00   0.00000000000000E+00  -1.42916685186880E-05  -4.76340342441089E-06  -1.90550719430989E-05
      1.67005434475103E-15
      8.20000000000000E-01
      8.38000000000000E-01   8.38000000000000E-01   0.00000000000000E+00   0.00000000000000E+00   2.74427806002987E-05
      9.14672345882202E-06   3.65895040591207E-05  -1.44064596075948E-15   0.00000000000000E+00   0.00000000000000E+00
      0.00000000000000E+00   0.00000000000000E+00  -2.74433697432379E-05  -9.14613431588315E-06  -3.65895040591210E-05
      1.44064596075947E-15
      8.40000000000000E-01
      8.56000000000000E-01   8.56000000000000E-01   0.00000000000000E+00   0.00000000000000E+00   5.10226000743372E-05
      1.70036343878625E-05   6.80262344621997E-05  -1.22749183322766E-15   0.00000000000000E+00   0.00000000000000E+00
      0.00000000000000E+00   0.00000000000000E+00  -5.10236168284294E-05  -1.70026176337699E-05  -6.80262344621993E-05
      1.22749183322766E-15
      8.60000000000000E-01
      8.74000000000000E-01   8.74000000000000E-01   0.00000000000000E+00   0.00000000000000E+00   9.05962310731712E-05
      3.01859953065401E-05   1.20782226379711E-04  -1.03927766431300E-15   0.00000000000000E+00   0.00000000000000E+00
      0.00000000000000E+00   0.00000000000000E+00  -9.05978603384465E-05  -3.01843660412635E-05  -1.20782226379710E-04
      1.03927766431299E-15
      8.80000000000000E-01
      8.92000000000000E-01   8.92000000000000E-01   0.00000000000000E+00   0.00000000000000E+00   1.52035081999630E-04
      5.06446589885103E-05   2.02679740988140E-04  -8.80913894893948E-16   0.00000000000000E+00   0.00000000000000E+00
      0.00000000000000E+00   0.00000000000000E+00  -1.52037494972505E-04  -5.06422460156312E-05  -2.02679740988137E-04
      8.80913894893945E-16
      9.00000000000000E-01
      9.10000000000000E-01   9.10000000000000E-01   0.00000000000000E+00   0.00000000000000E+00   2.40308767740969E-04
      8.00280662953181E-05   3.20336834036287E-04  -7.52214391961949E-16   0.00000000000000E+00   0.00000000000000E+00
      0.00000000000000E+00   0.00000000000000E+00  -2.40312094821028E-04  -8.00247392152594E-05  -3.20336834036288E-04
      7.52214391961960E-16
      9.20000000000000E-01
      9.28000000000000E-01   9.28000000000000E-01   0.00000000000000E+00   0.00000000000000E+00   3.58899601828872E-04
      1.19489036950070E-04   4.78388638778942E-04  -6.49382520353307E-16   0.00000000000000E+00   0.00000000000000E+00
      0.00000000000000E+00   0.00000000000000E+00  -3.58903929503004E-04  -1.19484709275942E-04  -4.78388638778946E-04
      6.49382520353312E-16
      9.40000000000001E-01