DF-ISE text

Info {
  version   = 1.0
  type      = xyplot
  datasets  = [
    "time"
    "n1contact OuterVoltage" "n1contact InnerVoltage" "n1contact QuasiFermiPotential" "n1contact DisplacementCurrent" "n1contact eCurrent"
    "n1contact hCurrent" "n1contact TotalCurrent" "n1contact Charge" "n2contact OuterVoltage" "n2contact InnerVoltage"
    "n2contact QuasiFermiPotential" "n2contact DisplacementCurrent" "n2contact eCurrent" "n2contact hCurrent" "n2contact TotalCurrent"
    "n2contact Charge" ]
  functions = [
    Time
    OuterVoltage InnerVoltage QuasiFermiPotential DisplacementCurrent eCurrent
    hCurrent TotalCurrent Charge OuterVoltage InnerVoltage
    QuasiFermiPotential DisplacementCurrent eCurrent hCurrent TotalCurrent
    Charge ]
}

Data {
      0.00000000000000E+00
      3.00000000000000E+00   3.00000000000000E+00   0.00000000000000E+00   0.00000000000000E+00   1.66830048947447E-01
      5.54088605660923E-02   2.22238909513539E-01   6.40988702592822E-18   0.00000000000000E+00   0.00000000000000E+00
      0.00000000000000E+00   0.00000000000000E+00  -1.66830138306285E-01  -5.54087712072514E-02  -2.22238909513537E-01
     -6.40988702592795E-18
      2.00000000000000E-02
      2.84000000000000E+00   2.84000000000000E+00   0.00000000000000E+00   0.00000000000000E+00   1.49099771538366E-01
      4.95203283787212E-02   1.98620099917087E-01   6.38031128045395E-19   0.00000000000000E+00   0.00000000000000E+00
      0.00000000000000E+00   0.00000000000000E+00  -1.49099857642546E-01  -4.95202422745474E-02  -1.98620099917094E-01
     -6.38031128045430E-19
      4.00000000000000E-02
      2.68000000000000E+00   2.68000000000000E+00   0.00000000000000E+00   0.00000000000000E+00   1.31572460786940E-01
      4.36992361251847E-02   1.75271696912125E-01  -5.55664929292276E-18   0.00000000000000E+00   0.00000000000000E+00
      0.00000000000000E+00   0.00000000000000E+00  -1.31572543269943E-01  -4.36991536421778E-02  -1.75271696912121E-01
      5.55664929292313E-18
      6.00000000000000E-02
      2.52000000000000E+00   2.52000000000000E+00   0.00000000000000E+00   0.00000000000000E+00   1.14321457953182E-01
      3.79699369409011E-02   1.52291394894083E-01  -1.22961947953751E-17   0.00000000000000E+00   0.00000000000000E+00
      0.00000000000000E+00   0.00000000000000E+00  -1.14321536390994E-01  -3.79698585030949E-02  -1.52291394894089E-01
      1.22961947953751E-17
      8.00000000000000E-02
      2.36000000000000E+00   2.36000000000000E+00   0.00000000000000E+00   0.00000000000000E+00   9.74494328058077E-02
      3.23665220504596E-02   1.29815954856267E-01  -1.97554508929870E-17   0.00000000000000E+00   0.00000000000000E+00
      0.00000000000000E+00   0.00000000000000E+00  -9.74495067087222E-02  -3.23664481475460E-02  -1.29815954856268E-01
      1.97554508929868E-17
      1.00000000000000E-01
      2.20000000000000E+00   2.20000000000000E+00   0.00000000000000E+00   0.00000000000000E+00   8.10979871303275E-02
      2.69360093209311E-02   1.08033996451259E-01  -2.81934142468091E-17   0.00000000000000E+00   0.00000000000000E+00
      0.00000000000000E+00   0.00000000000000E+00  -8.10980559369360E-02  -2.69359405143231E-02  -1.08033996451259E-01
      2.81934142468091E-17
      1.20000000000000E-01
      2.04000000000000E+00   2.04000000000000E+00   0.00000000000000E+00   0.00000000000000E+00   6.54561210238563E-02
      2.17411540923585E-02   8.71972751162148E-02  -3.80100573695894E-17   0.00000000000000E+00   0.00000000000000E+00
      0.00000000000000E+00   0.00000000000000E+00  -6.54561840993839E-02  -2.17410910168267E-02  -8.71972751162106E-02
      3.80100573695895E-17
      1.40000000000000E-01
      1.88000000000000E+00   1.88000000000000E+00   0.00000000000000E+00   0.00000000000000E+00   5.07651811852610E-02
      1.68620918108027E-02   6.76272729960637E-02  -4.98555984623748E-17   0.00000000000000E+00   0.00000000000000E+00
      0.00000000000000E+00   0.00000000000000E+00  -5.07652378274650E-02  -1.68620351686007E-02  -6.76272729960657E-02
      4.98555984623744E-17
      1.60000000000000E-01
      1.72000000000000E+00   1.72000000000000E+00   0.00000000000000E+00   0.00000000000000E+00   3.73177901459955E-02
      1.23959821291717E-02   4.97137722751672E-02  -6.48568939144883E-17   0.00000000000000E+00   0.00000000000000E+00
      0.00000000000000E+00   0.00000000000000E+00  -3.73178396023709E-02  -1.23959326727942E-02  -4.97137722751651E-02
      6.48568939144876E-17
      1.80000000000000E-01
      1.56000000000000E+00   1.56000000000000E+00   0.00000000000000E+00   0.00000000000000E+00   2.54479781703640E-02
      8.45373209889899E-03   3.39017102692630E-02  -8.51370814871234E-17   0.00000000000000E+00   0.00000000000000E+00
      0.00000000000000E+00   0.00000000000000E+00  -2.54480196707488E-02  -8.45369059851383E-03  -3.39017102692626E-02
      8.51370814871226E-17
      2.00000000000000E-01
      1.40000000000000E+00   1.40000000000000E+00   0.00000000000000E+00   0.00000000000000E+00   1.55094021696466E-02
      5.15276392114545E-03   2.06621660907921E-02  -1.15193919995303E-16   0.00000000000000E+00   0.00000000000000E+00
      0.00000000000000E+00   0.00000000000000E+00  -1.55094349762715E-02  -5.15273111452046E-03  -2.06621660907919E-02
      1.15193919995303E-16
      2.20000000000000E-01
      1.24000000000000E+00   1.24000000000000E+00   0.00000000000000E+00   0.00000000000000E+00   7.83984096963478E-03
      2.60522574265446E-03   1.04450667122892E-02  -1.66419782960225E-16   0.00000000000000E+00   0.00000000000000E+00
      0.00000000000000E+00   0.00000000000000E+00  -7.83986444170067E-03  -2.60520227058861E-03  -1.04450667122893E-02
      1.66419782960225E-16
      2.40000000000000E-01
      1.08000000000000E+00   1.08000000000000E+00   0.00000000000000E+00   0.00000000000000E+00   2.71602209390808E-03
      9.02991750640487E-04   3.61901384454856E-03  -2.77931007434887E-16   0.00000000000000E+00   0.00000000000000E+00
      0.00000000000000E+00   0.00000000000000E+00  -2.71603576131797E-03  -9.02978083230564E-04  -3.61901384454854E-03
      2.77931007434888E-16
      2.60000000000000E-01
      9.20000000000000E-01   9.20000000000000E-01   0.00000000000000E+00   0.00000000000000E+00   3.02286558616748E-04
      1.00652752714863E-04   4.02939311331612E-04  -6.92209270281615E-16   0.00000000000000E+00   0.00000000000000E+00
      0.00000000000000E+00   0.00000000000000E+00  -3.02290433341278E-04  -1.00648877990332E-04  -4.02939311331611E-04
      6.92209270281614E-16
      2.80000000000000E-01
      7.60000000000000E-01   7.60000000000000E-01   0.00000000000000E+00   0.00000000000000E+00   1.46714021685843E-06
      4.89085812267420E-07   1.95622602912585E-06  -2.44781927704190E-15   0.00000000000000E+00   0.00000000000000E+00
      0.00000000000000E+00   0.00000000000000E+00  -1.46717541279983E-06  -4.89050616326043E-07  -1.95622602912587E-06
      2.44781927704192E-15
      3.00000000000000E-01
      6.00000000000000E-01   6.00000000000000E-01   0.00000000000000E+00   0.00000000000000E+00   3.03301756966365E-09
      1.01111869778521E-09   4.04413626744886E-09  -4.05600451370855E-15   0.00000000000000E+00   0.00000000000000E+00
      0.00000000000000E+00   0.00000000000000E+00  -3.03310218457959E-09  -1.01103408286911E-09  -4.04413626744870E-09
      4.05600451370857E-15
      3.20000000000000E-01
      4.40000000000000E-01   4.40000000000000E-01   0.00000000000000E+00   0.00000000000000E+00   6.23410894278787E-12
      2.07851103788115E-12   8.31261998066901E-12  -5.19801876811481E-15   0.00000000000000E+00   0.00000000000000E+00
      0.00000000000000E+00   0.00000000000000E+00  -6.23451081907338E-12  -2.07810916159554E-12  -8.31261998066893E-12
      5.19801876811493E-15
      3.40000000000000E-01
      2.80000000000000E-01   2.80000000000000E-01   0.00000000000000E+00   0.00000000000000E+00   1.28093243898030E-14
      4.27600779320960E-15   1.70853321830126E-14  -6.14014461640570E-15   0.00000000000000E+00   0.00000000000000E+00
      0.00000000000000E+00   0.00000000000000E+00  -1.28153825418348E-14  -4.26994964117756E-15  -1.70853321830123E-14
      6.14014461640582E-15
      3.60000000000000E-01
      1.20000000000000E-01   1.20000000000000E-01   0.00000000000000E+00   0.00000000000000E+00   2.60616364275503E-17
      8.83070301835329E-18   3.48923394459036E-17  -6.94867208547923E-15   0.00000000000000E+00   0.00000000000000E+00
      0.00000000000000E+00   0.00000000000000E+00  -2.62047272082995E-17  -8.68761223760381E-18  -3.48923394459033E-17
      6.94867208547918E-15
      3.80000000000000E-01
     -4.00000000000005E-02  -4.00000000000005E-02   0.00000000000000E+00   0.00000000000000E+00  -2.01278262521510E-19
     -8.09193338907492E-20  -2.82197596412259E-19  -7.67371291296704E-15   0.00000000000000E+00   0.00000000000000E+00
      0.00000000000000E+00   0.00000000000000E+00   2.15103225675239E-19   6.70943707370226E-20   2.82197596412262E-19
      7.67371291296701E-15
      4.00000000000000E-01
     -2.00000000000001E-01  -2.00000000000001E-01   0.00000000000000E+00   0.00000000000000E+00  -2.54156589448962E-19
     -2.62294636202519E-19  -5.16451225651482E-19  -8.33997405703214E-15   0.00000000000000E+00   0.00000000000000E+00
      0.00000000000000E+00   0.00000000000000E+00   4.31727756447074E-19   8.47234692044090E-20   5.16451225651483E-19
      8.33997405703193E-15
      4.20000000000000E-01
     -3.60000000000001E-01  -3.60000000000001E-01   0.00000000000000E+00   0.00000000000000E+00  -2.54489476623085E-19
     -6.97464613611856E-19  -9.51954090234941E-19  -8.95474565394103E-15   0.00000000000000E+00   0.00000000000000E+00
      0.00000000000000E+00   0.00000000000000E+00   8.67119286173923E-19   8.48348040610291E-20   9.51954090234952E-19
      8.95474565394115E-15
      4.40000000000000E-01
     -5.20000000000001E-01  -5.20000000000001E-01   0.00000000000000E+00   0.00000000000000E+00  -2.54720878938594E-19
     -8.66379740096038E-19  -1.12110061903463E-18  -9.52725186482642E-15   0.00000000000000E+00   0.00000000000000E+00
      0.00000000000000E+00   0.00000000000000E+00   1.03618836697679E-18   8.49122520578165E-20   1.12110061903461E-18
      9.52725186482632E-15
      4.60000000000000E-01
     -6.80000000000001E-01  -6.80000000000001E-01   0.00000000000000E+00   0.00000000000000E+00  -2.54937903548101E-19
     -8.92619215697971E-19  -1.14755711924607E-18  -1.00684209719994E-14   0.00000000000000E+00   0.00000000000000E+00
      0.00000000000000E+00   0.00000000000000E+00   1.06257223101628E-18   8.49848882297991E-20   1.14755711924608E-18
      1.00684209719992E-14
      4.80000000000000E-01
     -8.40000000000001E-01  -8.40000000000001E-01   0.00000000000000E+00   0.00000000000000E+00  -2.55144874171078E-19
     -9.57810442692403E-19  -1.21295531686348E-18  -1.05842020374808E-14   0.00000000000000E+00   0.00000000000000E+00
      0.00000000000000E+00   0.00000000000000E+00   1.12790115698376E-18   8.50541598797514E-20   1.21295531686352E-18
      1.05842020374808E-14
      5.00000000000000E-01
     -1.00000000000000E+00  -1.00000000000000E+00   0.00000000000000E+00   0.00000000000000E+00  -2.55344200434232E-19
     -1.21266826360639E-18  -1.46801246404063E-18  -1.10761069329604E-14   0.00000000000000E+00   0.00000000000000E+00
      0.00000000000000E+00   0.00000000000000E+00   1.38289159060291E-18   8.51208734377296E-20   1.46801246404064E-18
      1.10761069329606E-14
      5.20000000000000E-01
     -1.16000000000000E+00  -1.16000000000000E+00   0.00000000000000E+00   0.00000000000000E+00  -2.55535766334705E-19
     -1.54265850201589E-18  -1.79819426835059E-18  -1.15453819146240E-14   0.00000000000000E+00   0.00000000000000E+00
      0.00000000000000E+00   0.00000000000000E+00   1.71300927832542E-18   8.51849900251264E-20   1.79819426835055E-18
      1.15453819146240E-14
      5.40000000000000E-01
     -1.32000000000000E+00  -1.32000000000000E+00   0.00000000000000E+00   0.00000000000000E+00  -2.55718970918702E-19
     -1.66035091895004E-18  -1.91606988986874E-18  -1.19951692740708E-14   0.00000000000000E+00   0.00000000000000E+00
      0.00000000000000E+00   0.00000000000000E+00   1.83082358141490E-18   8.52463084538539E-20   1.91606988986876E-18
      1.19951692740706E-14
      5.60000000000000E-01
     -1.48000000000000E+00  -1.48000000000000E+00   0.00000000000000E+00   0.00000000000000E+00  -2.55894578646266E-19
     -1.68389966544402E-18  -1.93979424409028E-18  -1.24292185482030E-14   0.00000000000000E+00   0.00000000000000E+00
      0.00000000000000E+00   0.00000000000000E+00   1.85448915954586E-18   8.53050845443687E-20   1.93979424409022E-18
      1.24292185482031E-14
      5.80000000000000E-01
     -1.64000000000000E+00  -1.64000000000000E+00   0.00000000000000E+00   0.00000000000000E+00  -2.56064426168511E-19
     -1.71148448649507E-18  -1.96754891266358E-18  -1.28499181979757E-14   0.00000000000000E+00   0.00000000000000E+00
      0.00000000000000E+00   0.00000000000000E+00   1.88218697967442E-18   8.53619329891780E-20   1.96754891266360E-18
      1.28499181979755E-14
      6.00000000000000E-01
     -1.80000000000000E+00  -1.80000000000000E+00   0.00000000000000E+00   0.00000000000000E+00  -2.56230088474918E-19
     -1.81395029074072E-18  -2.07018037921564E-18  -1.32579947239505E-14   0.00000000000000E+00   0.00000000000000E+00
      0.00000000000000E+00   0.00000000000000E+00   1.98476299830024E-18   8.54173809154249E-20   2.07018037921566E-18
      1.32579947239506E-14
      6.20000000000000E-01
     -1.96000000000000E+00  -1.96000000000000E+00   0.00000000000000E+00   0.00000000000000E+00  -2.56392047346281E-19
     -2.06708445157113E-18  -2.32347649891741E-18  -1.36534775632193E-14   0.00000000000000E+00   0.00000000000000E+00
      0.00000000000000E+00   0.00000000000000E+00   2.23800490936155E-18   8.54715895558258E-20   2.32347649891737E-18
      1.36534775632192E-14
      6.40000000000000E-01
     -2.12000000000000E+00  -2.12000000000000E+00   0.00000000000000E+00   0.00000000000000E+00  -2.56549827856643E-19
     -2.33394529233233E-18  -2.59049512018898E-18  -1.40368077399441E-14   0.00000000000000E+00   0.00000000000000E+00
      0.00000000000000E+00   0.00000000000000E+00   2.50497072026455E-18   8.55243999244115E-20   2.59049512018896E-18
      1.40368077399443E-14
      6.60000000000000E-01
     -2.28000000000000E+00  -2.28000000000000E+00   0.00000000000000E+00   0.00000000000000E+00  -2.56702856528759E-19
     -2.44685088149736E-18  -2.70355373802612E-18  -1.44092558852718E-14   0.00000000000000E+00   0.00000000000000E+00
      0.00000000000000E+00   0.00000000000000E+00   2.61797811797644E-18   8.55756200497126E-20   2.70355373802615E-18
      1.44092558852721E-14
      6.80000000000000E-01
     -2.44000000000000E+00  -2.44000000000000E+00   0.00000000000000E+00   0.00000000000000E+00  -2.56851232178015E-19
     -2.47511132065379E-18  -2.73196255283180E-18  -1.47724463730137E-14   0.00000000000000E+00   0.00000000000000E+00
      0.00000000000000E+00   0.00000000000000E+00   2.64633726984855E-18   8.56252829832807E-20   2.73196255283183E-18
      1.47724463730135E-14
      7.00000000000000E-01
     -2.60000000000000E+00  -2.60000000000000E+00   0.00000000000000E+00   0.00000000000000E+00  -2.56995760734732E-19
     -2.48999323931526E-18  -2.74698900004999E-18  -1.51276294159912E-14   0.00000000000000E+00   0.00000000000000E+00
      0.00000000000000E+00   0.00000000000000E+00   2.66131534159267E-18   8.56736584573136E-20   2.74698900004999E-18
      1.51276294159914E-14
      7.20000000000000E-01
     -2.76000000000000E+00  -2.76000000000000E+00   0.00000000000000E+00   0.00000000000000E+00  -2.57137447514544E-19
     -2.52687926908517E-18  -2.78401671659971E-18  -1.54753687278408E-14   0.00000000000000E+00   0.00000000000000E+00
      0.00000000000000E+00   0.00000000000000E+00   2.69829563365409E-18   8.57210829456240E-20   2.78401671659972E-18
      1.54753687278407E-14
      7.40000000000000E-01
     -2.92000000000000E+00  -2.92000000000000E+00   0.00000000000000E+00   0.00000000000000E+00  -2.57276972424610E-19
     -2.63649092303592E-18  -2.89376789546053E-18  -1.58157034868265E-14   0.00000000000000E+00   0.00000000000000E+00
      0.00000000000000E+00   0.00000000000000E+00   2.80800011145252E-18   8.57677840080399E-20   2.89376789546056E-18
      1.58157034868265E-14
      7.60000000000000E-01
     -3.08000000000000E+00  -3.08000000000000E+00   0.00000000000000E+00   0.00000000000000E+00  -2.57414437530394E-19
     -2.85784605534484E-18  -3.11526049287524E-18  -1.61485387469758E-14   0.00000000000000E+00   0.00000000000000E+00
      0.00000000000000E+00   0.00000000000000E+00   3.02944669708254E-18   8.58137957927061E-20   3.11526049287525E-18
      1.61485387469759E-14
      7.80000000000000E-01
     -3.24000000000000E+00  -3.24000000000000E+00   0.00000000000000E+00   0.00000000000000E+00  -2.57549467765423E-19
     -3.09477192538277E-18  -3.35232139314819E-18  -1.64740213185746E-14   0.00000000000000E+00   0.00000000000000E+00
      0.00000000000000E+00   0.00000000000000E+00   3.26646240040774E-18   8.58589927404117E-20   3.35232139314815E-18
      1.64740213185746E-14
      8.00000000000000E-01
     -3.40000000000000E+00  -3.40000000000000E+00   0.00000000000000E+00   0.00000000000000E+00  -2.57681593881487E-19
     -3.22214266469352E-18  -3.47982425857500E-18  -1.67926925046358E-14   0.00000000000000E+00   0.00000000000000E+00
      0.00000000000000E+00   0.00000000000000E+00   3.39392104080769E-18   8.59032177673284E-20   3.47982425857502E-18
      1.67926925046359E-14
      8.20000000000000E-01
     -3.56000000000000E+00  -3.56000000000000E+00   0.00000000000000E+00   0.00000000000000E+00  -2.57810652717887E-19
     -3.26354237470588E-18  -3.52135302742377E-18  -1.71053383982497E-14   0.00000000000000E+00   0.00000000000000E+00
      0.00000000000000E+00   0.00000000000000E+00   3.43540661118133E-18   8.59464162424383E-20   3.52135302742376E-18
      1.71053383982499E-14
      8.40000000000000E-01
     -3.72000000000000E+00  -3.72000000000000E+00   0.00000000000000E+00   0.00000000000000E+00  -2.57936924593372E-19
     -3.27764816334666E-18  -3.53558508794003E-18  -1.74126909338855E-14   0.00000000000000E+00   0.00000000000000E+00
      0.00000000000000E+00   0.00000000000000E+00   3.44959640596508E-18   8.59886819749465E-20   3.53558508794003E-18
      1.74126909338856E-14
      8.60000000000000E-01
     -3.88000000000000E+00  -3.88000000000000E+00   0.00000000000000E+00   0.00000000000000E+00  -2.58060978712800E-19
     -3.29274372025102E-18  -3.55080469896382E-18  -1.77152124213458E-14   0.00000000000000E+00   0.00000000000000E+00
      0.00000000000000E+00   0.00000000000000E+00   3.46477449349345E-18   8.60302054702888E-20   3.55080469896374E-18
      1.77152124213455E-14
      8.80000000000000E-01
     -4.04000000000000E+00  -4.04000000000000E+00   0.00000000000000E+00   0.00000000000000E+00  -2.58183400607108E-19
     -3.33077583394010E-18  -3.58895923454721E-18  -1.80130583366804E-14   0.00000000000000E+00   0.00000000000000E+00
      0.00000000000000E+00   0.00000000000000E+00   3.50288805184861E-18   8.60711826986377E-20   3.58895923454725E-18
      1.80130583366804E-14
      9.00000000000000E-01
     -4.20000000000000E+00  -4.20000000000000E+00   0.00000000000000E+00   0.00000000000000E+00  -2.58304561771559E-19
     -3.42748046642219E-18  -3.68578502819375E-18  -1.83061770656975E-14   0.00000000000000E+00   0.00000000000000E+00
      0.00000000000000E+00   0.00000000000000E+00   3.59967329020715E-18   8.61117379866048E-20   3.68578502819375E-18
      1.83061770656974E-14
      9.20000000000000E-01
     -4.36000000000000E+00  -4.36000000000000E+00   0.00000000000000E+00   0.00000000000000E+00  -2.58424507763198E-19
     -3.61074005678361E-18  -3.86916456454681E-18  -1.85944731903297E-14   0.00000000000000E+00   0.00000000000000E+00
      0.00000000000000E+00   0.00000000000000E+00   3.78301267798817E-18   8.61518865585686E-20   3.86916456454674E-18
      1.85944731903297E-14
      9.40000000000001E-01
     -4.52000000000000E+00  -4.52000000000000E+00   0.00000000000000E+00   0.00000000000000E+00  -2.58542995344249E-19
     -3.82762728285564E-18  -4.08617027819989E-18  -1.88779660066006E-14   0.00000000000000E+00   0.00000000000000E+00
      0.00000000000000E+00   0.00000000000000E+00   3.99997873123216E-18   8.61915469677193E-20   4.08617027819988E-18
      1.88779660066008E-14
      9.60000000000001E-01
     -4.68000000000000E+00  -4.68000000000000E+00   0.00000000000000E+00   0.00000000000000E+00  -2.58659665927660E-19
     -3.97826586856886E-18  -4.23692553449652E-18  -1.91568745812961E-14   0.00000000000000E+00   0.00000000000000E+00
      0.00000000000000E+00   0.00000000000000E+00   4.15069493534119E-18   8.62305991552181E-20   4.23692553449641E-18
      1.91568745812960E-14
      9.80000000000001E-01
     -4.84000000000000E+00  -4.84000000000000E+00   0.00000000000000E+00   0.00000000000000E+00  -2.58774268002370E-19
     -4.04364071084171E-18  -4.30241497884409E-18  -1.94315866715416E-14   0.00000000000000E+00   0.00000000000000E+00
      0.00000000000000E+00   0.00000000000000E+00   4.21614601994152E-18   8.62689589025949E-20   4.30241497884412E-18
      1.94315866715415E-14
      1.00000000000000E+00
     -5.00000000000000E+00  -5.00000000000000E+00   0.00000000000000E+00   0.00000000000000E+00  -2.58886800799891E-19
     -4.06628705667952E-18  -4.32517385747942E-18  -1.97025387147828E-14   0.00000000000000E+00   0.00000000000000E+00
      0.00000000000000E+00   0.00000000000000E+00   4.23886723156082E-18   8.63066259185414E-20   4.32517385747937E-18
      1.97025387147830E-14
}
