DF-ISE text

Info {
  version   = 1.0
  type      = xyplot
  datasets  = [
    "time"
    "n1contact OuterVoltage" "n1contact InnerVoltage" "n1contact QuasiFermiPotential" "n1contact DisplacementCurrent" "n1contact eCurrent"
    "n1contact hCurrent" "n1contact TotalCurrent" "n1contact Charge" "n2contact OuterVoltage" "n2contact InnerVoltage"
    "n2contact QuasiFermiPotential" "n2contact DisplacementCurrent" "n2contact eCurrent" "n2contact hCurrent" "n2contact TotalCurrent"
    "n2contact Charge" ]
  functions = [
    Time
    OuterVoltage InnerVoltage QuasiFermiPotential DisplacementCurrent eCurrent
    hCurrent TotalCurrent Charge OuterVoltage InnerVoltage
    QuasiFermiPotential DisplacementCurrent eCurrent hCurrent TotalCurrent
    Charge ]
}

Data {
      0.00000000000000E+00
      3.00000000000000E+00   3.00000000000000E+00   0.00000000000000E+00   0.00000000000000E+00   1.66824411152773E-01
      5.54075202192367E-02   2.22231931372010E-01   6.40844174952695E-18   0.00000000000000E+00   0.00000000000000E+00
      0.00000000000000E+00   0.00000000000000E+00  -1.66825304705401E-01  -5.54066266666049E-02  -2.22231931372006E-01
     -6.40844174952662E-18
      2.00000000000000E-02
      2.84000000000000E+00   2.84000000000000E+00   0.00000000000000E+00   0.00000000000000E+00   1.49094457983336E-01
      4.95190764107839E-02   1.98613534394120E-01   6.36412032952553E-19   0.00000000000000E+00   0.00000000000000E+00
      0.00000000000000E+00   0.00000000000000E+00  -1.49095318989116E-01  -4.95182154049996E-02  -1.98613534394115E-01
     -6.36412032952701E-19
      4.00000000000000E-02
      2.68000000000000E+00   2.68000000000000E+00   0.00000000000000E+00   0.00000000000000E+00   1.31567504821969E-01
      4.36980814307389E-02   1.75265586252708E-01  -5.55847145701982E-18   0.00000000000000E+00   0.00000000000000E+00
      0.00000000000000E+00   0.00000000000000E+00  -1.31568329616053E-01  -4.36972566366555E-02  -1.75265586252708E-01
      5.55847145701961E-18
      6.00000000000000E-02
      2.52000000000000E+00   2.52000000000000E+00   0.00000000000000E+00   0.00000000000000E+00   1.14316897409553E-01
      3.79688895605277E-02   1.52285786970081E-01  -1.22982567693097E-17   0.00000000000000E+00   0.00000000000000E+00
      0.00000000000000E+00   0.00000000000000E+00  -1.14317681751823E-01  -3.79681052182618E-02  -1.52285786970085E-01
      1.22982567693095E-17
      8.00000000000000E-02
      2.36000000000000E+00   2.36000000000000E+00   0.00000000000000E+00   0.00000000000000E+00   9.74453094977992E-02
      3.23655929564951E-02   1.29810902454294E-01  -1.97577997358615E-17   0.00000000000000E+00   0.00000000000000E+00
      0.00000000000000E+00   0.00000000000000E+00  -9.74460484916124E-02  -3.23648539626847E-02  -1.29810902454297E-01
      1.97577997358615E-17
      1.00000000000000E-01
      2.20000000000000E+00   2.20000000000000E+00   0.00000000000000E+00   0.00000000000000E+00   8.10943447672161E-02
      2.69352096871271E-02   1.08029554454343E-01  -2.81961118670960E-17   0.00000000000000E+00   0.00000000000000E+00
      0.00000000000000E+00   0.00000000000000E+00  -8.10950327988510E-02  -2.69345216554912E-02  -1.08029554454342E-01
      2.81961118670959E-17
      1.20000000000000E-01
      2.04000000000000E+00   2.04000000000000E+00   0.00000000000000E+00   0.00000000000000E+00   6.54530009439735E-02
      2.17404938661612E-02   8.71934948101347E-02  -3.80131881103987E-17   0.00000000000000E+00   0.00000000000000E+00
      0.00000000000000E+00   0.00000000000000E+00  -6.54536316662331E-02  -2.17398631439015E-02  -8.71934948101346E-02
      3.80131881103986E-17
      1.40000000000000E-01
      1.88000000000000E+00   1.88000000000000E+00   0.00000000000000E+00   0.00000000000000E+00   5.07626157634203E-02
      1.68615775573974E-02   6.76241933208176E-02  -4.98592823522003E-17   0.00000000000000E+00   0.00000000000000E+00
      0.00000000000000E+00   0.00000000000000E+00  -5.07631821544138E-02  -1.68610111664023E-02  -6.76241933208161E-02
      4.98592823522002E-17
      1.60000000000000E-01
      1.72000000000000E+00   1.72000000000000E+00   0.00000000000000E+00   0.00000000000000E+00   3.73157943667861E-02
      1.23956143342098E-02   4.97114087009959E-02  -6.48613111637523E-17   0.00000000000000E+00   0.00000000000000E+00
      0.00000000000000E+00   0.00000000000000E+00  -3.73162889023156E-02  -1.23951197986799E-02  -4.97114087009955E-02
      6.48613111637517E-17
      1.80000000000000E-01
      1.56000000000000E+00   1.56000000000000E+00   0.00000000000000E+00   0.00000000000000E+00   2.54465405903995E-02
      8.45350236173885E-03   3.39000429521383E-02  -8.51425216430836E-17   0.00000000000000E+00   0.00000000000000E+00
      0.00000000000000E+00   0.00000000000000E+00  -2.54469555696391E-02  -8.45308738249856E-03  -3.39000429521376E-02
      8.51425216430840E-17
      2.00000000000000E-01
      1.40000000000000E+00   1.40000000000000E+00   0.00000000000000E+00   0.00000000000000E+00   1.55084772844122E-02
      5.15265272721295E-03   2.06611300116252E-02  -1.15200892454580E-16   0.00000000000000E+00   0.00000000000000E+00
      0.00000000000000E+00   0.00000000000000E+00  -1.55088053305464E-02  -5.15232468107879E-03  -2.06611300116252E-02
      1.15200892454580E-16
      2.20000000000000E-01
      1.24000000000000E+00   1.24000000000000E+00   0.00000000000000E+00   0.00000000000000E+00   7.83934566706098E-03
      2.60520170766015E-03   1.04445473747211E-02  -1.66429305409042E-16   0.00000000000000E+00   0.00000000000000E+00
      0.00000000000000E+00   0.00000000000000E+00  -7.83958037287050E-03  -2.60496700185080E-03  -1.04445473747213E-02
      1.66429305409041E-16
      2.40000000000000E-01
      1.08000000000000E+00   1.08000000000000E+00   0.00000000000000E+00   0.00000000000000E+00   2.71583843321762E-03
      9.03013117835975E-04   3.61885155105360E-03  -2.77945474143816E-16   0.00000000000000E+00   0.00000000000000E+00
      0.00000000000000E+00   0.00000000000000E+00  -2.71597509828013E-03  -9.02876452773464E-04  -3.61885155105359E-03
      2.77945474143816E-16
      2.60000000000000E-01
      9.20000000000000E-01   9.20000000000000E-01   0.00000000000000E+00   0.00000000000000E+00   3.02267301647866E-04
      1.00671047415619E-04   4.02938349063485E-04  -6.92231048178918E-16   0.00000000000000E+00   0.00000000000000E+00
      0.00000000000000E+00   0.00000000000000E+00  -3.02306045904138E-04  -1.00632303159352E-04  -4.02938349063490E-04
      6.92231048178918E-16
      2.80000000000000E-01
      7.60000000000000E-01   7.60000000000000E-01   0.00000000000000E+00   0.00000000000000E+00   1.46711515810749E-06
      4.89323593300409E-07   1.95643875140790E-06  -2.44781974682568E-15   0.00000000000000E+00   0.00000000000000E+00
      0.00000000000000E+00   0.00000000000000E+00  -1.46746709545784E-06  -4.88971655950056E-07  -1.95643875140790E-06
      2.44781974682569E-15
      3.00000000000000E-01
      6.00000000000000E-01   6.00000000000000E-01   0.00000000000000E+00   0.00000000000000E+00   3.03296880968441E-09
      1.01171835325013E-09   4.04468716293454E-09  -4.05600451449508E-15   0.00000000000000E+00   0.00000000000000E+00
      0.00000000000000E+00   0.00000000000000E+00  -3.03381491398810E-09  -1.01087224894646E-09  -4.04468716293457E-09
      4.05600451449518E-15
      3.20000000000000E-01
      4.40000000000000E-01   4.40000000000000E-01   0.00000000000000E+00   0.00000000000000E+00   6.23400909748662E-12
      2.08179640624291E-12   8.31580550372953E-12  -5.19801876811836E-15   0.00000000000000E+00   0.00000000000000E+00
      0.00000000000000E+00   0.00000000000000E+00  -6.23802776880819E-12  -2.07777773492135E-12  -8.31580550372954E-12
      5.19801876811847E-15
      3.40000000000000E-01
      2.80000000000000E-01   2.80000000000000E-01   0.00000000000000E+00   0.00000000000000E+00   1.28091198705998E-14
      4.32985203551891E-15   1.71389719061188E-14  -6.14014461640576E-15   0.00000000000000E+00   0.00000000000000E+00
      0.00000000000000E+00   0.00000000000000E+00  -1.28697012039035E-14  -4.26927070221525E-15  -1.71389719061188E-14
      6.14014461640582E-15
      3.60000000000000E-01
      1.20000000000000E-01   1.20000000000000E-01   0.00000000000000E+00   0.00000000000000E+00   2.60612207740021E-17
      1.01171417018034E-17   3.61783624758054E-17  -6.94867208547926E-15   0.00000000000000E+00   0.00000000000000E+00
      0.00000000000000E+00   0.00000000000000E+00  -2.74921282014486E-17  -8.68623427435738E-18  -3.61783624758060E-17
      6.94867208547919E-15
      3.80000000000000E-01
     -4.00000000000005E-02  -4.00000000000005E-02   0.00000000000000E+00   0.00000000000000E+00  -2.01275078835922E-19
     -2.05333452332234E-19  -4.06608531168156E-19  -7.67371291296704E-15   0.00000000000000E+00   0.00000000000000E+00
      0.00000000000000E+00   0.00000000000000E+00   3.39524707342135E-19   6.70838238260180E-20   4.06608531168153E-19
      7.67371291296702E-15
      4.00000000000000E-01
     -2.00000000000001E-01  -2.00000000000001E-01   0.00000000000000E+00   0.00000000000000E+00  -2.54152560081166E-19
     -1.86042175878374E-18  -2.11457431886491E-18  -8.33997405703216E-15   0.00000000000000E+00   0.00000000000000E+00
      0.00000000000000E+00   0.00000000000000E+00   2.02986422523221E-18   8.47100936327118E-20   2.11457431886492E-18
      8.33997405703193E-15
      4.20000000000000E-01
     -3.60000000000001E-01  -3.60000000000001E-01   0.00000000000000E+00   0.00000000000000E+00  -2.54485449297286E-19
     -6.21111952602997E-18  -6.46560497532726E-18  -8.95474565394102E-15   0.00000000000000E+00   0.00000000000000E+00
      0.00000000000000E+00   0.00000000000000E+00   6.38078353906605E-18   8.48214362613607E-20   6.46560497532741E-18
      8.95474565394110E-15
      4.40000000000000E-01
     -5.20000000000001E-01  -5.20000000000001E-01   0.00000000000000E+00   0.00000000000000E+00  -2.54716855443921E-19
     -7.89957377053228E-18  -8.15429062597620E-18  -9.52725186482641E-15   0.00000000000000E+00   0.00000000000000E+00
      0.00000000000000E+00   0.00000000000000E+00   8.06939172919255E-18   8.48988967837191E-20   8.15429062597627E-18
      9.52725186482632E-15
      4.60000000000000E-01
     -6.80000000000001E-01  -6.80000000000001E-01   0.00000000000000E+00   0.00000000000000E+00  -2.54933883568862E-19
     -8.16131481265292E-18  -8.41624869622178E-18  -1.00684209719993E-14   0.00000000000000E+00   0.00000000000000E+00
      0.00000000000000E+00   0.00000000000000E+00   8.33127715154878E-18   8.49715446732429E-20   8.41624869622202E-18
      1.00684209719992E-14
      4.80000000000000E-01
     -8.40000000000001E-01  -8.40000000000001E-01   0.00000000000000E+00   0.00000000000000E+00  -2.55140857539777E-19
     -8.81260364835726E-18  -9.06774450589704E-18  -1.05842020374808E-14   0.00000000000000E+00   0.00000000000000E+00
      0.00000000000000E+00   0.00000000000000E+00   8.98270367840664E-18   8.50408274908264E-20   9.06774450589747E-18
      1.05842020374807E-14
      5.00000000000000E-01
     -1.00000000000000E+00  -1.00000000000000E+00   0.00000000000000E+00   0.00000000000000E+00  -2.55340187027025E-19
     -1.13605814446292E-17  -1.16159216316562E-17  -1.10761069329604E-14   0.00000000000000E+00   0.00000000000000E+00
      0.00000000000000E+00   0.00000000000000E+00   1.15308140798357E-17   8.51075518202505E-20   1.16159216316560E-17
      1.10761069329606E-14
      5.20000000000000E-01
     -1.16000000000000E+00  -1.16000000000000E+00   0.00000000000000E+00   0.00000000000000E+00  -2.55531756032936E-19
     -1.46599067874268E-17  -1.49154385434598E-17  -1.15453819146240E-14   0.00000000000000E+00   0.00000000000000E+00
      0.00000000000000E+00   0.00000000000000E+00   1.48302668647205E-17   8.51716787391900E-20   1.49154385434597E-17
      1.15453819146240E-14
      5.40000000000000E-01
     -1.32000000000000E+00  -1.32000000000000E+00   0.00000000000000E+00   0.00000000000000E+00  -2.55714963573164E-19
     -1.58362790994044E-17  -1.60919940629776E-17  -1.19951692740708E-14   0.00000000000000E+00   0.00000000000000E+00
      0.00000000000000E+00   0.00000000000000E+00   1.60067610559715E-17   8.52330070057100E-20   1.60919940629772E-17
      1.19951692740707E-14
      5.60000000000000E-01
     -1.48000000000000E+00  -1.48000000000000E+00   0.00000000000000E+00   0.00000000000000E+00  -2.55890574124863E-19
     -1.60712375889874E-17  -1.63271281631123E-17  -1.24292185482030E-14   0.00000000000000E+00   0.00000000000000E+00
      0.00000000000000E+00   0.00000000000000E+00   1.62418363706049E-17   8.52917925075018E-20   1.63271281631124E-17
      1.24292185482031E-14
      5.80000000000000E-01
     -1.64000000000000E+00  -1.64000000000000E+00   0.00000000000000E+00   0.00000000000000E+00  -2.56060424374815E-19
     -1.63465741725787E-17  -1.66026345969535E-17  -1.28499181979757E-14   0.00000000000000E+00   0.00000000000000E+00
      0.00000000000000E+00   0.00000000000000E+00   1.65172859469064E-17   8.53486500470142E-20   1.66026345969534E-17
      1.28499181979755E-14
      6.00000000000000E-01
     -1.80000000000000E+00  -1.80000000000000E+00   0.00000000000000E+00   0.00000000000000E+00  -2.56226089340401E-19
     -1.73707331916614E-17  -1.76269592810018E-17  -1.32579947239505E-14   0.00000000000000E+00   0.00000000000000E+00
      0.00000000000000E+00   0.00000000000000E+00   1.75415551741534E-17   8.54041068483291E-20   1.76269592810017E-17
      1.32579947239506E-14
      6.20000000000000E-01
     -1.96000000000000E+00  -1.96000000000000E+00   0.00000000000000E+00   0.00000000000000E+00  -2.56388050814012E-19
     -1.99015869288504E-17  -2.01579749796644E-17  -1.36534775632193E-14   0.00000000000000E+00   0.00000000000000E+00
      0.00000000000000E+00   0.00000000000000E+00   2.00725166554892E-17   8.54583241751550E-20   2.01579749796644E-17
      1.36534775632192E-14
      6.40000000000000E-01
     -2.12000000000000E+00  -2.12000000000000E+00   0.00000000000000E+00   0.00000000000000E+00  -2.56545833860613E-19
     -2.25697200484141E-17  -2.28262658822747E-17  -1.40368077399441E-14   0.00000000000000E+00   0.00000000000000E+00
      0.00000000000000E+00   0.00000000000000E+00   2.27407547392919E-17   8.55111429833295E-20   2.28262658822753E-17
      1.40368077399442E-14
      6.60000000000000E-01
     -2.28000000000000E+00  -2.28000000000000E+00   0.00000000000000E+00   0.00000000000000E+00  -2.56698864983617E-19
     -2.36983149651854E-17  -2.39550138301690E-17  -1.44092558852718E-14   0.00000000000000E+00   0.00000000000000E+00
      0.00000000000000E+00   0.00000000000000E+00   2.38694514589042E-17   8.55623712650707E-20   2.39550138301692E-17
      1.44092558852720E-14
      6.80000000000000E-01
     -2.44000000000000E+00  -2.44000000000000E+00   0.00000000000000E+00   0.00000000000000E+00  -2.56847243002061E-19
     -2.39804723981991E-17  -2.42373196412012E-17  -1.47724463730137E-14   0.00000000000000E+00   0.00000000000000E+00
      0.00000000000000E+00   0.00000000000000E+00   2.41517075991084E-17   8.56120420923647E-20   2.42373196412008E-17
      1.47724463730135E-14
      7.00000000000000E-01
     -2.60000000000000E+00  -2.60000000000000E+00   0.00000000000000E+00   0.00000000000000E+00  -2.56991773863115E-19
     -2.41288562135560E-17  -2.43858479874191E-17  -1.51276294159912E-14   0.00000000000000E+00   0.00000000000000E+00
      0.00000000000000E+00   0.00000000000000E+00   2.43001875621713E-17   8.56604252476506E-20   2.43858479874190E-17
      1.51276294159914E-14
      7.20000000000000E-01
     -2.76000000000000E+00  -2.76000000000000E+00   0.00000000000000E+00   0.00000000000000E+00  -2.57133462900091E-19
     -2.44972896983473E-17  -2.47544231612473E-17  -1.54753687278407E-14   0.00000000000000E+00   0.00000000000000E+00
      0.00000000000000E+00   0.00000000000000E+00   2.46687153039823E-17   8.57078572639486E-20   2.47544231612463E-17
      1.54753687278407E-14
      7.40000000000000E-01
     -2.92000000000000E+00  -2.92000000000000E+00   0.00000000000000E+00   0.00000000000000E+00  -2.57272990032605E-19
     -2.55929859346974E-17  -2.58502589247300E-17  -1.58157034868265E-14   0.00000000000000E+00   0.00000000000000E+00
      0.00000000000000E+00   0.00000000000000E+00   2.57645043589838E-17   8.57545657458656E-20   2.58502589247297E-17
      1.58157034868264E-14
      7.60000000000000E-01
     -3.08000000000000E+00  -3.08000000000000E+00   0.00000000000000E+00   0.00000000000000E+00  -2.57410457330276E-19
     -2.78061231568405E-17  -2.80635336141708E-17  -1.61485387469758E-14   0.00000000000000E+00   0.00000000000000E+00
      0.00000000000000E+00   0.00000000000000E+00   2.79777330293247E-17   8.58005848467044E-20   2.80635336141714E-17
      1.61485387469759E-14
      7.80000000000000E-01
     -3.24000000000000E+00  -3.24000000000000E+00   0.00000000000000E+00   0.00000000000000E+00  -2.57545489719534E-19
     -3.01749750882923E-17  -3.04325205780119E-17  -1.64740213185745E-14   0.00000000000000E+00   0.00000000000000E+00
      0.00000000000000E+00   0.00000000000000E+00   3.03466747890477E-17   8.58457889642422E-20   3.04325205780119E-17
      1.64740213185746E-14
      8.00000000000000E-01
     -3.40000000000000E+00  -3.40000000000000E+00   0.00000000000000E+00   0.00000000000000E+00  -2.57677617937516E-19
     -3.14482844603440E-17  -3.17059620782815E-17  -1.67926925046357E-14   0.00000000000000E+00   0.00000000000000E+00
      0.00000000000000E+00   0.00000000000000E+00   3.16200720572984E-17   8.58900209837743E-20   3.17059620782822E-17
      1.67926925046359E-14
      8.20000000000000E-01
     -3.56000000000000E+00  -3.56000000000000E+00   0.00000000000000E+00   0.00000000000000E+00  -2.57806678820594E-19
     -3.18618927804738E-17  -3.21196994592944E-17  -1.71053383982499E-14   0.00000000000000E+00   0.00000000000000E+00
      0.00000000000000E+00   0.00000000000000E+00   3.20337662330201E-17   8.59332262757767E-20   3.21196994592959E-17
      1.71053383982499E-14
      8.40000000000000E-01
     -3.72000000000000E+00  -3.72000000000000E+00   0.00000000000000E+00   0.00000000000000E+00  -2.57932952695089E-19
     -3.20025702823532E-17  -3.22605032350482E-17  -1.74126909338855E-14   0.00000000000000E+00   0.00000000000000E+00
      0.00000000000000E+00   0.00000000000000E+00   3.21745277363783E-17   8.59754986703939E-20   3.22605032350487E-17
      1.74126909338856E-14
      8.60000000000000E-01
     -3.88000000000000E+00  -3.88000000000000E+00   0.00000000000000E+00   0.00000000000000E+00  -2.58057008776456E-19
     -3.21531521469295E-17  -3.24112091557059E-17  -1.77152124213458E-14   0.00000000000000E+00   0.00000000000000E+00
      0.00000000000000E+00   0.00000000000000E+00   3.23251921269992E-17   8.60170287064512E-20   3.24112091557056E-17
      1.77152124213456E-14
      8.80000000000000E-01
     -4.04000000000000E+00  -4.04000000000000E+00   0.00000000000000E+00   0.00000000000000E+00  -2.58179432605742E-19
     -3.25331044952424E-17  -3.27912839278481E-17  -1.80130583366804E-14   0.00000000000000E+00   0.00000000000000E+00
      0.00000000000000E+00   0.00000000000000E+00   3.27052259154590E-17   8.60580123890544E-20   3.27912839278481E-17
      1.80130583366804E-14
      9.00000000000000E-01
     -4.20000000000000E+00  -4.20000000000000E+00   0.00000000000000E+00   0.00000000000000E+00  -2.58300595685164E-19
     -3.34997858279803E-17  -3.37580864236654E-17  -1.83061770656975E-14   0.00000000000000E+00   0.00000000000000E+00
      0.00000000000000E+00   0.00000000000000E+00   3.36719878495953E-17   8.60985740703065E-20   3.37580864236656E-17
      1.83061770656973E-14
      9.20000000000000E-01
     -4.36000000000000E+00  -4.36000000000000E+00   0.00000000000000E+00   0.00000000000000E+00  -2.58420543574224E-19
     -3.53320203987284E-17  -3.55904409423026E-17  -1.85944731903297E-14   0.00000000000000E+00   0.00000000000000E+00
      0.00000000000000E+00   0.00000000000000E+00   3.55043022133259E-17   8.61387289770194E-20   3.55904409423029E-17
      1.85944731903297E-14
      9.40000000000001E-01
     -4.52000000000000E+00  -4.52000000000000E+00   0.00000000000000E+00   0.00000000000000E+00  -2.58539033031310E-19
     -3.75005357184932E-17  -3.77590747515245E-17  -1.88779660066007E-14   0.00000000000000E+00   0.00000000000000E+00
      0.00000000000000E+00   0.00000000000000E+00   3.76728963558908E-17   8.61783956340884E-20   3.77590747515249E-17
      1.88779660066008E-14
      9.60000000000001E-01
     -4.68000000000000E+00  -4.68000000000000E+00   0.00000000000000E+00   0.00000000000000E+00  -2.58655705458881E-19
     -3.90065701082697E-17  -3.92652258137286E-17  -1.91568745812960E-14   0.00000000000000E+00   0.00000000000000E+00
      0.00000000000000E+00   0.00000000000000E+00   3.91790083597739E-17   8.62174539548224E-20   3.92652258137287E-17
      1.91568745812960E-14
      9.80000000000001E-01
     -4.84000000000000E+00  -4.84000000000000E+00   0.00000000000000E+00   0.00000000000000E+00  -2.58770309339398E-19
     -3.96599732976586E-17  -3.99187436069980E-17  -1.94315866715416E-14   0.00000000000000E+00   0.00000000000000E+00
      0.00000000000000E+00   0.00000000000000E+00   3.98324877872838E-17   8.62558197133236E-20   3.99187436069972E-17
      1.94315866715415E-14
      1.00000000000000E+00
     -5.00000000000000E+00  -5.00000000000000E+00   0.00000000000000E+00   0.00000000000000E+00  -2.58882843906254E-19
     -3.98860977588454E-17  -4.01449806027516E-17  -1.97025387147828E-14   0.00000000000000E+00   0.00000000000000E+00
      0.00000000000000E+00   0.00000000000000E+00   4.00586871101273E-17   8.62934926240485E-20   4.01449806027513E-17
      1.97025387147830E-14
}
