DF-ISE text

Info {
  version   = 1.0
  type      = xyplot
  datasets  = [
    "time"
    "n1contact OuterVoltage" "n1contact InnerVoltage" "n1contact QuasiFermiPotential" "n1contact DisplacementCurrent" "n1contact eCurrent"
    "n1contact hCurrent" "n1contact TotalCurrent" "n1contact Charge" "n2contact OuterVoltage" "n2contact InnerVoltage"
    "n2contact QuasiFermiPotential" "n2contact DisplacementCurrent" "n2contact eCurrent" "n2contact hCurrent" "n2contact TotalCurrent"
    "n2contact Charge" ]
  functions = [
    Time
    OuterVoltage InnerVoltage QuasiFermiPotential DisplacementCurrent eCurrent
    hCurrent TotalCurrent Charge OuterVoltage InnerVoltage
    QuasiFermiPotential DisplacementCurrent eCurrent hCurrent TotalCurrent
    Charge ]
}

Data {
      0.00000000000000E+00
      3.00000000000000E+00   3.00000000000000E+00   0.00000000000000E+00   0.00000000000000E+00   8.44263222394099E-02
      2.80402911148967E-02   1.12466613354307E-01   7.94439456044678E-18   0.00000000000000E+00   0.00000000000000E+00
      0.00000000000000E+00   0.00000000000000E+00  -8.44263222394099E-02  -2.80402911148967E-02  -1.12466613354307E-01
     -7.94439456044692E-18
      2.00000000000000E-02
      2.84000000000000E+00   2.84000000000000E+00   0.00000000000000E+00   0.00000000000000E+00   7.56448685523471E-02
      2.51238127164803E-02   1.00768681268827E-01   2.33640416205522E-18   0.00000000000000E+00   0.00000000000000E+00
      0.00000000000000E+00   0.00000000000000E+00  -7.56448685523471E-02  -2.51238127164803E-02  -1.00768681268827E-01
     -2.33640416205524E-18
      4.00000000000000E-02
      2.68000000000000E+00   2.68000000000000E+00   0.00000000000000E+00   0.00000000000000E+00   6.69464442895865E-02
      2.22349263139554E-02   8.91813706035420E-02  -3.66490631413885E-18   0.00000000000000E+00   0.00000000000000E+00
      0.00000000000000E+00   0.00000000000000E+00  -6.69464442895865E-02  -2.22349263139554E-02  -8.91813706035419E-02
      3.66490631413878E-18
      6.00000000000000E-02
      2.52000000000000E+00   2.52000000000000E+00   0.00000000000000E+00   0.00000000000000E+00   5.83663228320181E-02
      1.93853445980953E-02   7.77516674301134E-02  -1.01686351702982E-17   0.00000000000000E+00   0.00000000000000E+00
      0.00000000000000E+00   0.00000000000000E+00  -5.83663228320181E-02  -1.93853445980953E-02  -7.77516674301134E-02
      1.01686351702983E-17
      8.00000000000000E-02
      2.36000000000000E+00   2.36000000000000E+00   0.00000000000000E+00   0.00000000000000E+00   4.99537849053233E-02
      1.65914312014878E-02   6.65452161068111E-02  -1.73295740999191E-17   0.00000000000000E+00   0.00000000000000E+00
      0.00000000000000E+00   0.00000000000000E+00  -4.99537849053233E-02  -1.65914312014878E-02  -6.65452161068111E-02
      1.73295740999191E-17
      1.00000000000000E-01
      2.20000000000000E+00   2.20000000000000E+00   0.00000000000000E+00   0.00000000000000E+00   4.17768985417316E-02
      1.38757877487876E-02   5.56526862905192E-02  -2.53743505939585E-17   0.00000000000000E+00   0.00000000000000E+00
      0.00000000000000E+00   0.00000000000000E+00  -4.17768985417316E-02  -1.38757877487876E-02  -5.56526862905192E-02
      2.53743505939585E-17
      1.20000000000000E-01
      2.04000000000000E+00   2.04000000000000E+00   0.00000000000000E+00   0.00000000000000E+00   3.39269195939821E-02
      1.12687148529140E-02   4.51956344468961E-02  -3.46480605522600E-17   0.00000000000000E+00   0.00000000000000E+00
      0.00000000000000E+00   0.00000000000000E+00  -3.39269195939821E-02  -1.12687148529140E-02  -4.51956344468961E-02
      3.46480605522599E-17
      1.40000000000000E-01
      1.88000000000000E+00   1.88000000000000E+00   0.00000000000000E+00   0.00000000000000E+00   2.65211388908728E-02
      8.80915728587871E-03   3.53302961767515E-02  -4.57021936464320E-17   0.00000000000000E+00   0.00000000000000E+00
      0.00000000000000E+00   0.00000000000000E+00  -2.65211388908728E-02  -8.80915728587871E-03  -3.53302961767515E-02
      4.57021936464321E-17
      1.60000000000000E-01
      1.72000000000000E+00   1.72000000000000E+00   0.00000000000000E+00   0.00000000000000E+00   1.97029329358913E-02
      6.54472061807875E-03   2.62476535539700E-02  -5.94721115976306E-17   0.00000000000000E+00   0.00000000000000E+00
      0.00000000000000E+00   0.00000000000000E+00  -1.97029329358913E-02  -6.54472061807875E-03  -2.62476535539700E-02
      5.94721115976307E-17
      1.80000000000000E-01
      1.56000000000000E+00   1.56000000000000E+00   0.00000000000000E+00   0.00000000000000E+00   1.36376722184408E-02
      4.53031248744021E-03   1.81679847058810E-02  -7.76702231180960E-17   0.00000000000000E+00   0.00000000000000E+00
      0.00000000000000E+00   0.00000000000000E+00  -1.36376722184408E-02  -4.53031248744021E-03  -1.81679847058810E-02
      7.76702231180960E-17
      2.00000000000000E-01
      1.40000000000000E+00   1.40000000000000E+00   0.00000000000000E+00   0.00000000000000E+00   8.50295128523056E-03
      2.82489854801111E-03   1.13278498332417E-02  -1.03779105553820E-16   0.00000000000000E+00   0.00000000000000E+00
      0.00000000000000E+00   0.00000000000000E+00  -8.50295128523056E-03  -2.82489854801111E-03  -1.13278498332417E-02
      1.03779105553819E-16
      2.20000000000000E-01
      1.24000000000000E+00   1.24000000000000E+00   0.00000000000000E+00   0.00000000000000E+00   4.47200529419348E-03
      1.48599602267966E-03   5.95800131687314E-03  -1.46085683652114E-16   0.00000000000000E+00   0.00000000000000E+00
      0.00000000000000E+00   0.00000000000000E+00  -4.47200529419348E-03  -1.48599602267966E-03  -5.95800131687314E-03
      1.46085683652114E-16
      2.40000000000000E-01
      1.08000000000000E+00   1.08000000000000E+00   0.00000000000000E+00   0.00000000000000E+00   1.69158199619117E-03
      5.62325998146514E-04   2.25390799433768E-03  -2.30160205055411E-16   0.00000000000000E+00   0.00000000000000E+00
      0.00000000000000E+00   0.00000000000000E+00  -1.69158199619117E-03  -5.62325998146513E-04  -2.25390799433768E-03
      2.30160205055411E-16
      2.60000000000000E-01
      9.20000000000000E-01   9.20000000000000E-01   0.00000000000000E+00   0.00000000000000E+00   2.57932947125330E-04
      8.58496536301064E-05   3.43782600755436E-04  -4.85403326235248E-16   0.00000000000000E+00   0.00000000000000E+00
      0.00000000000000E+00   0.00000000000000E+00  -2.57932947125330E-04  -8.58496536301064E-05  -3.43782600755436E-04
      4.85403326235250E-16
      2.80000000000000E-01
      7.60000000000000E-01   7.60000000000000E-01   0.00000000000000E+00   0.00000000000000E+00   2.03842232150172E-06
      6.79480931948527E-07   2.71790325345025E-06  -1.58608743920779E-15   0.00000000000000E+00   0.00000000000000E+00
      0.00000000000000E+00   0.00000000000000E+00  -2.03842232150172E-06  -6.79480931948527E-07  -2.71790325345025E-06
      1.58608743920784E-15
      3.00000000000000E-01
      6.00000000000000E-01   6.00000000000000E-01   0.00000000000000E+00   0.00000000000000E+00   4.25695297836492E-09
      1.41905866823788E-09   5.67601164660280E-09  -2.75610576728955E-15   0.00000000000000E+00   0.00000000000000E+00
      0.00000000000000E+00   0.00000000000000E+00  -4.25695297836492E-09  -1.41905866823788E-09  -5.67601164660280E-09
      2.75610576728955E-15
      3.20000000000000E-01
      4.40000000000000E-01   4.40000000000000E-01   0.00000000000000E+00   0.00000000000000E+00   8.75736194679310E-12
      2.91930416147620E-12   1.16766661082693E-11  -3.59183757120664E-15   0.00000000000000E+00   0.00000000000000E+00
      0.00000000000000E+00   0.00000000000000E+00  -8.75736194679310E-12  -2.91930416147620E-12  -1.16766661082693E-11
      3.59183757120659E-15
      3.40000000000000E-01
      2.80000000000000E-01   2.80000000000000E-01   0.00000000000000E+00   0.00000000000000E+00   1.80056230205224E-14
      6.00230235325480E-15   2.40079253737772E-14  -4.26750009263753E-15   0.00000000000000E+00   0.00000000000000E+00
      0.00000000000000E+00   0.00000000000000E+00  -1.80056230205224E-14  -6.00230235325480E-15  -2.40079253737772E-14
      4.26750009263759E-15
      3.60000000000000E-01
      1.20000000000000E-01   1.20000000000000E-01   0.00000000000000E+00   0.00000000000000E+00   3.66545026520133E-17
      1.22191282652048E-17   4.88736309172180E-17  -4.85011692454149E-15   0.00000000000000E+00   0.00000000000000E+00
      0.00000000000000E+00   0.00000000000000E+00  -3.66545026520133E-17  -1.22191282652048E-17  -4.88736309172180E-17
      4.85011692454149E-15
      3.80000000000000E-01
     -4.00000000000005E-02  -4.00000000000005E-02   0.00000000000000E+00   0.00000000000000E+00  -2.82970820265861E-19
     -9.43294591047273E-20  -3.77300279370588E-19  -5.36972762541404E-15   0.00000000000000E+00   0.00000000000000E+00
      0.00000000000000E+00   0.00000000000000E+00   2.82970820265861E-19   9.43294591047273E-20   3.77300279370588E-19
      5.36972762541399E-15
      4.00000000000000E-01
     -2.00000000000001E-01  -2.00000000000001E-01   0.00000000000000E+00   0.00000000000000E+00  -3.57786836945408E-19
     -1.19273123076828E-19  -4.77059960022237E-19  -5.84347103473714E-15   0.00000000000000E+00   0.00000000000000E+00
      0.00000000000000E+00   0.00000000000000E+00   3.57786836945408E-19   1.19273123076829E-19   4.77059960022237E-19
      5.84347103473713E-15
      4.20000000000000E-01
     -3.60000000000001E-01  -3.60000000000001E-01   0.00000000000000E+00   0.00000000000000E+00  -3.58421056229097E-19
     -1.19485238006849E-19  -4.77906294235946E-19  -6.28148979940263E-15   0.00000000000000E+00   0.00000000000000E+00
      0.00000000000000E+00   0.00000000000000E+00   3.58421056229097E-19   1.19485238006849E-19   4.77906294235946E-19
      6.28148979940266E-15
      4.40000000000000E-01
     -5.20000000000001E-01  -5.20000000000001E-01   0.00000000000000E+00   0.00000000000000E+00  -3.58888105789470E-19
     -1.19641557545435E-19  -4.78529663334906E-19  -6.69087962453874E-15   0.00000000000000E+00   0.00000000000000E+00
      0.00000000000000E+00   0.00000000000000E+00   3.58888105789471E-19   1.19641557545435E-19   4.78529663334906E-19
      6.69087962453873E-15
      4.60000000000000E-01
     -6.80000000000001E-01  -6.80000000000001E-01   0.00000000000000E+00   0.00000000000000E+00  -3.59329207536490E-19
     -1.19789193550802E-19  -4.79118401087292E-19  -7.07672097370127E-15   0.00000000000000E+00   0.00000000000000E+00
      0.00000000000000E+00   0.00000000000000E+00   3.59329207536561E-19   1.19789193550732E-19   4.79118401087293E-19
      7.07672097370139E-15
      4.80000000000000E-01
     -8.40000000000001E-01  -8.40000000000001E-01   0.00000000000000E+00   0.00000000000000E+00  -3.59748577945473E-19
     -1.19929556730311E-19  -4.79678134675784E-19  -7.44252592169337E-15   0.00000000000000E+00   0.00000000000000E+00
      0.00000000000000E+00   0.00000000000000E+00   3.59748577949269E-19   1.19929556726514E-19   4.79678134675783E-19
      7.44252592169349E-15
      5.00000000000000E-01
     -1.00000000000000E+00  -1.00000000000000E+00   0.00000000000000E+00   0.00000000000000E+00  -3.60149030468290E-19
     -1.20063588476504E-19  -4.80212618944793E-19  -7.79113151771637E-15   0.00000000000000E+00   0.00000000000000E+00
      0.00000000000000E+00   0.00000000000000E+00   3.60149030585076E-19   1.20063588359717E-19   4.80212618944793E-19
      7.79113151771635E-15
      5.20000000000000E-01
     -1.16000000000000E+00  -1.16000000000000E+00   0.00000000000000E+00   0.00000000000000E+00  -3.60533121939126E-19
     -1.20192146136577E-19  -4.80725268075703E-19  -8.12486009673088E-15   0.00000000000000E+00   0.00000000000000E+00
      0.00000000000000E+00   0.00000000000000E+00   3.60533124251991E-19   1.20192143823709E-19   4.80725268075699E-19
      8.12486009673085E-15
      5.40000000000000E-01
     -1.32000000000000E+00  -1.32000000000000E+00   0.00000000000000E+00   0.00000000000000E+00  -3.60902966733941E-19
     -1.20315962504031E-19  -4.81218929237972E-19  -8.44542933036026E-15   0.00000000000000E+00   0.00000000000000E+00
      0.00000000000000E+00   0.00000000000000E+00   3.60902998880653E-19   1.20315930357315E-19   4.81218929237968E-19
      8.44542933036025E-15
      5.60000000000000E-01
     -1.48000000000000E+00  -1.48000000000000E+00   0.00000000000000E+00   0.00000000000000E+00  -3.61260004146717E-19
     -1.20435763533115E-19  -4.81695767679832E-19  -8.75421024954390E-15   0.00000000000000E+00   0.00000000000000E+00
      0.00000000000000E+00   0.00000000000000E+00   3.61260338496081E-19   1.20435429183747E-19   4.81695767679828E-19
      8.75421024954391E-15
      5.80000000000000E-01
     -1.64000000000000E+00  -1.64000000000000E+00   0.00000000000000E+00   0.00000000000000E+00  -3.61605405803749E-19
     -1.20553766817233E-19  -4.82159172620982E-19  -9.05245092069190E-15   0.00000000000000E+00   0.00000000000000E+00
      0.00000000000000E+00   0.00000000000000E+00   3.61608140765946E-19   1.20551031855037E-19   4.82159172620983E-19
      9.05245092069189E-15
      6.00000000000000E-01
     -1.80000000000000E+00  -1.80000000000000E+00   0.00000000000000E+00   0.00000000000000E+00  -3.61940386288881E-19
     -1.20681434332357E-19  -4.82621820621238E-19  -9.34122116880399E-15   0.00000000000000E+00   0.00000000000000E+00
      0.00000000000000E+00   0.00000000000000E+00   3.61958676431357E-19   1.20663144189877E-19   4.82621820621235E-19
      9.34122116880391E-15
      6.20000000000000E-01
     -1.96000000000000E+00  -1.96000000000000E+00   0.00000000000000E+00   0.00000000000000E+00  -3.62266019629697E-19
     -1.20875177281353E-19  -4.83141196911049E-19  -9.62134823938947E-15   0.00000000000000E+00   0.00000000000000E+00
      0.00000000000000E+00   0.00000000000000E+00   3.62369072096108E-19   1.20772124814942E-19   4.83141196911051E-19
      9.62134823938950E-15
      6.40000000000000E-01
     -2.12000000000000E+00  -2.12000000000000E+00   0.00000000000000E+00   0.00000000000000E+00  -3.62583048170959E-19
     -1.21379285682726E-19  -4.83962333853685E-19  -9.89351241927962E-15   0.00000000000000E+00   0.00000000000000E+00
      0.00000000000000E+00   0.00000000000000E+00   3.63084112684823E-19   1.20878221168860E-19   4.83962333853682E-19
      9.89351241927968E-15
      6.60000000000000E-01
     -2.28000000000000E+00  -2.28000000000000E+00   0.00000000000000E+00   0.00000000000000E+00  -3.62892029387738E-19
     -1.23126193550292E-19  -4.86018222938030E-19  -1.01583586556969E-14   0.00000000000000E+00   0.00000000000000E+00
      0.00000000000000E+00   0.00000000000000E+00   3.65036604319880E-19   1.20981618618157E-19   4.86018222938036E-19
      1.01583586556969E-14
      6.80000000000000E-01
     -2.44000000000000E+00  -2.44000000000000E+00   0.00000000000000E+00   0.00000000000000E+00  -3.63193568036563E-19
     -1.29296898801172E-19  -4.92490466837735E-19  -1.04164910979815E-14   0.00000000000000E+00   0.00000000000000E+00
      0.00000000000000E+00   0.00000000000000E+00   3.71407948725547E-19   1.21082518112187E-19   4.92490466837734E-19
      1.04164910979814E-14
      7.00000000000000E-01
     -2.60000000000000E+00  -2.60000000000000E+00   0.00000000000000E+00   0.00000000000000E+00  -3.63488315547482E-19
     -1.49722874954937E-19  -5.13211190502418E-19  -1.06684129082544E-14   0.00000000000000E+00   0.00000000000000E+00
      0.00000000000000E+00   0.00000000000000E+00   3.92030054590631E-19   1.21181135911780E-19   5.13211190502411E-19
      1.06684129082544E-14
      7.20000000000000E-01
     -2.76000000000000E+00  -2.76000000000000E+00   0.00000000000000E+00   0.00000000000000E+00  -3.63776806409065E-19
     -2.12247792987449E-19  -5.76024599396514E-19  -1.09145238583580E-14   0.00000000000000E+00   0.00000000000000E+00
      0.00000000000000E+00   0.00000000000000E+00   4.54746950624593E-19   1.21277648771925E-19   5.76024599396518E-19
      1.09145238583578E-14
      7.40000000000000E-01
     -2.92000000000000E+00  -2.92000000000000E+00   0.00000000000000E+00   0.00000000000000E+00  -3.64059391302367E-19
     -3.89863194274856E-19  -7.53922585577223E-19  -1.11551785842717E-14   0.00000000000000E+00   0.00000000000000E+00
      0.00000000000000E+00   0.00000000000000E+00   6.32550414045531E-19   1.21372171531683E-19   7.53922585577215E-19
      1.11551785842716E-14
      7.60000000000000E-01
     -3.08000000000000E+00  -3.08000000000000E+00   0.00000000000000E+00   0.00000000000000E+00  -3.64336343682541E-19
     -8.61306570270758E-19  -1.22564291395330E-18  -1.13907303697076E-14   0.00000000000000E+00   0.00000000000000E+00
      0.00000000000000E+00   0.00000000000000E+00   1.10417812120727E-18   1.21464792746022E-19   1.22564291395329E-18
      1.13907303697076E-14
      7.80000000000000E-01
     -3.24000000000000E+00  -3.24000000000000E+00   0.00000000000000E+00   0.00000000000000E+00  -3.64607989107775E-19
     -2.03856217393393E-18  -2.40317016304171E-18  -1.16215198115887E-14   0.00000000000000E+00   0.00000000000000E+00
      0.00000000000000E+00   0.00000000000000E+00   2.28161454516081E-18   1.21555617880902E-19   2.40317016304171E-18
      1.16215198115887E-14
      8.00000000000000E-01
     -3.40000000000000E+00  -3.40000000000000E+00   0.00000000000000E+00   0.00000000000000E+00  -3.64874709581793E-19
     -4.82088728556010E-18  -5.18576199514190E-18  -1.18478400711381E-14   0.00000000000000E+00   0.00000000000000E+00
      0.00000000000000E+00   0.00000000000000E+00   5.06411722449651E-18   1.21644770645388E-19   5.18576199514189E-18
      1.18478400711382E-14
      8.20000000000000E-01
     -3.56000000000000E+00  -3.56000000000000E+00   0.00000000000000E+00   0.00000000000000E+00  -3.65136845956706E-19
     -1.10763641980921E-17  -1.14415010440488E-17  -1.20699277431127E-14   0.00000000000000E+00   0.00000000000000E+00
      0.00000000000000E+00   0.00000000000000E+00   1.13197686838086E-17   1.21732360240137E-19   1.14415010440487E-17
      1.20699277431128E-14
      8.40000000000000E-01
     -3.72000000000000E+00  -3.72000000000000E+00   0.00000000000000E+00   0.00000000000000E+00  -3.65394626201465E-19
     -2.45157382452790E-17  -2.48811328714805E-17  -1.22879880218807E-14   0.00000000000000E+00   0.00000000000000E+00
      0.00000000000000E+00   0.00000000000000E+00   2.47593144141501E-17   1.21818457330203E-19   2.48811328714803E-17
      1.22879880218808E-14
      8.60000000000000E-01
     -3.88000000000000E+00  -3.88000000000000E+00   0.00000000000000E+00   0.00000000000000E+00  -3.65648194097457E-19
     -5.22194733578904E-17  -5.25851215519878E-17  -1.25022246628592E-14   0.00000000000000E+00   0.00000000000000E+00
      0.00000000000000E+00   0.00000000000000E+00   5.24632184483389E-17   1.21903103648774E-19   5.25851215519876E-17
      1.25022246628593E-14
      8.80000000000000E-01
     -4.04000000000000E+00  -4.04000000000000E+00   0.00000000000000E+00   0.00000000000000E+00  -3.65897696602405E-19
     -1.07217371910912E-16  -1.07583269607514E-16  -1.27128463553342E-14   0.00000000000000E+00   0.00000000000000E+00
      0.00000000000000E+00   0.00000000000000E+00   1.07461283266337E-16   1.21986341177289E-19   1.07583269607515E-16
      1.27128463553342E-14
      9.00000000000000E-01
     -4.20000000000000E+00  -4.20000000000000E+00   0.00000000000000E+00   0.00000000000000E+00  -3.66143336478038E-19
     -2.12706848730483E-16  -2.13072992066961E-16  -1.29200498923783E-14   0.00000000000000E+00   0.00000000000000E+00
      0.00000000000000E+00   0.00000000000000E+00   2.12950923837327E-16   1.22068229633684E-19   2.13072992066961E-16
      1.29200498923782E-14
      9.20000000000000E-01
     -4.36000000000000E+00  -4.36000000000000E+00   0.00000000000000E+00   0.00000000000000E+00  -3.66385346495202E-19
     -4.08738763190821E-16  -4.09105148537317E-16  -1.31240024939463E-14   0.00000000000000E+00   0.00000000000000E+00
      0.00000000000000E+00   0.00000000000000E+00   4.08982999699561E-16   1.22148837754178E-19   4.09105148537315E-16
      1.31240024939464E-14
      9.40000000000001E-01
     -4.52000000000000E+00  -4.52000000000000E+00   0.00000000000000E+00   0.00000000000000E+00  -3.66623922842619E-19
     -7.62521531675415E-16  -7.62888155598257E-16  -1.33248414668180E-14   0.00000000000000E+00   0.00000000000000E+00
      0.00000000000000E+00   0.00000000000000E+00   7.62765927377178E-16   1.22228221078533E-19   7.62888155598257E-16
      1.33248414668180E-14
      9.60000000000001E-01
     -4.68000000000000E+00  -4.68000000000000E+00   0.00000000000000E+00   0.00000000000000E+00  -3.66859185255895E-19
     -1.38393404054699E-15  -1.38430089973224E-15  -1.35226898149714E-14   0.00000000000000E+00   0.00000000000000E+00
      0.00000000000000E+00   0.00000000000000E+00   1.38417859332337E-15   1.22306408870160E-19   1.38430089973224E-15
      1.35226898149715E-14
      9.80000000000001E-01
     -4.84000000000000E+00  -4.84000000000000E+00   0.00000000000000E+00   0.00000000000000E+00  -3.67091196438715E-19
     -2.44842096121364E-15  -2.44878805241008E-15  -1.37176726743639E-14   0.00000000000000E+00   0.00000000000000E+00
      0.00000000000000E+00   0.00000000000000E+00   2.44866566899914E-15   1.22383410939928E-19   2.44878805241008E-15
      1.37176726743639E-14
      1.00000000000000E+00
     -5.00000000000000E+00  -5.00000000000000E+00   0.00000000000000E+00   0.00000000000000E+00  -3.67320017295508E-19
     -4.23014379942770E-15  -4.23051111944499E-15  -1.39099213993045E-14   0.00000000000000E+00   0.00000000000000E+00
      0.00000000000000E+00   0.00000000000000E+00   4.23038866020859E-15   1.22459236404648E-19   4.23051111944499E-15
      1.39099213993045E-14
}
