DF-ISE text

Info {
  version   = 1.0
  type      = xyplot
  datasets  = [
    "time"
    "n1contact OuterVoltage" "n1contact InnerVoltage" "n1contact QuasiFermiPotential" "n1contact DisplacementCurrent" "n1contact eCurrent"
    "n1contact hCurrent" "n1contact TotalCurrent" "n1contact Charge" "n2contact OuterVoltage" "n2contact InnerVoltage"
    "n2contact QuasiFermiPotential" "n2contact DisplacementCurrent" "n2contact eCurrent" "n2contact hCurrent" "n2contact TotalCurrent"
    "n2contact Charge" ]
  functions = [
    Time
    OuterVoltage InnerVoltage QuasiFermiPotential DisplacementCurrent eCurrent
    hCurrent TotalCurrent Charge OuterVoltage InnerVoltage
    QuasiFermiPotential DisplacementCurrent eCurrent hCurrent TotalCurrent
    Charge ]
}

Data {
      0.00000000000000E+00
      0.00000000000000E+00   0.00000000000000E+00   0.00000000000000E+00   0.00000000000000E+00   1.86794774441548E-25
      4.61465789283859E-26   2.32941353369934E-25  -5.24463963572091E-15   0.00000000000000E+00   0.00000000000000E+00
      0.00000000000000E+00   0.00000000000000E+00  -1.86794774441548E-25  -4.61465789283859E-26  -2.32941353369934E-25
      5.24463963572095E-15
      0.00000000000000E+00
      0.00000000000000E+00   0.00000000000000E+00   0.00000000000000E+00   0.00000000000000E+00  -6.39956240814618E-26
     -3.48404666279474E-26  -9.88360907094092E-26  -5.24463934833300E-15   0.00000000000000E+00   0.00000000000000E+00
      0.00000000000000E+00   0.00000000000000E+00   6.39956240814618E-26   3.48404666279474E-26   9.88360907094092E-26
      5.24463934833303E-15
      0.00000000000000E+00
      0.00000000000000E+00   0.00000000000000E+00   0.00000000000000E+00   0.00000000000000E+00  -1.14709137504506E-26
      1.60370387240279E-28  -1.13105433632103E-26  -5.24463934833295E-15   0.00000000000000E+00   0.00000000000000E+00
      0.00000000000000E+00   0.00000000000000E+00   1.14709137504506E-26  -1.60370387240282E-28   1.13105433632103E-26
      5.24463934833299E-15
      1.00000000000000E-01
      1.00000000000000E-03   1.00000000000000E-03   0.00000000000000E+00   0.00000000000000E+00   1.40893843036174E-20
      4.69685525370743E-21   1.87862395573248E-20  -5.24147412384943E-15   0.00000000000000E+00   0.00000000000000E+00
      0.00000000000000E+00   0.00000000000000E+00  -1.40893843036174E-20  -4.69685525370743E-21  -1.87862395573248E-20
      5.24147412384941E-15
      2.00000000000000E-01
      2.00000000000000E-03   2.00000000000000E-03   0.00000000000000E+00   0.00000000000000E+00   2.87343201742231E-20
      9.57891232467465E-21   3.83132324988978E-20  -5.23830699716048E-15   0.00000000000000E+00   0.00000000000000E+00
      0.00000000000000E+00   0.00000000000000E+00  -2.87343201742231E-20  -9.57891232467465E-21  -3.83132324988977E-20
      5.23830699716053E-15
      3.00000000000000E-01
      3.00000000000000E-03   3.00000000000000E-03   0.00000000000000E+00   0.00000000000000E+00   4.39564017880721E-20
      1.46533518370829E-20   5.86097536251550E-20  -5.23513796472075E-15   0.00000000000000E+00   0.00000000000000E+00
      0.00000000000000E+00   0.00000000000000E+00  -4.39564017880721E-20  -1.46533518370829E-20  -5.86097536251550E-20
      5.23513796472069E-15
      4.00000000000000E-01
      4.00000000000000E-03   4.00000000000000E-03   0.00000000000000E+00   0.00000000000000E+00   5.97785167575044E-20
      1.99278350050715E-20   7.97063517625759E-20  -5.23196702296436E-15   0.00000000000000E+00   0.00000000000000E+00
      0.00000000000000E+00   0.00000000000000E+00  -5.97785167575044E-20  -1.99278350050715E-20  -7.97063517625759E-20
      5.23196702296434E-15
      5.00000000000000E-01
      5.00000000000000E-03   5.00000000000000E-03   0.00000000000000E+00   0.00000000000000E+00   7.62243740122849E-20
      2.54102446746547E-20   1.01634618686940E-19  -5.22879416831803E-15   0.00000000000000E+00   0.00000000000000E+00
      0.00000000000000E+00   0.00000000000000E+00  -7.62243740122849E-20  -2.54102446746547E-20  -1.01634618686940E-19
      5.22879416831803E-15
      6.00000000000000E-01
      6.00000000000000E-03   6.00000000000000E-03   0.00000000000000E+00   0.00000000000000E+00   9.33184814615075E-20
      3.11087526792849E-20   1.24427234140792E-19  -5.22561939719314E-15   0.00000000000000E+00   0.00000000000000E+00
      0.00000000000000E+00   0.00000000000000E+00  -9.33184814615075E-20  -3.11087526792849E-20  -1.24427234140792E-19
      5.22561939719317E-15
      7.00000000000000E-01
      7.00000000000000E-03   7.00000000000000E-03   0.00000000000000E+00   0.00000000000000E+00   1.11086710000312E-19
      3.70319903135736E-20   1.48118700313886E-19  -5.22244270598709E-15   0.00000000000000E+00   0.00000000000000E+00
      0.00000000000000E+00   0.00000000000000E+00  -1.11086710000312E-19  -3.70319903135736E-20  -1.48118700313886E-19
      5.22244270598708E-15
      8.00000000000000E-01
      8.00000000000000E-03   8.00000000000000E-03   0.00000000000000E+00   0.00000000000000E+00   1.29555111764278E-19
      4.31886340163966E-20   1.72743745780674E-19  -5.21926409108363E-15   0.00000000000000E+00   0.00000000000000E+00
      0.00000000000000E+00   0.00000000000000E+00  -1.29555111764278E-19  -4.31886340163966E-20  -1.72743745780674E-19
      5.21926409108366E-15
      9.00000000000000E-01
      9.00000000000000E-03   9.00000000000000E-03   0.00000000000000E+00   0.00000000000000E+00   1.48751616979428E-19
      4.95880041538269E-20   1.98339621133255E-19  -5.21608354885266E-15   0.00000000000000E+00   0.00000000000000E+00
      0.00000000000000E+00   0.00000000000000E+00  -1.48751616979428E-19  -4.95880041538269E-20  -1.98339621133255E-19
      5.21608354885279E-15
      1.00000000000000E+00
      1.00000000000000E-02   1.00000000000000E-02   0.00000000000000E+00   0.00000000000000E+00   1.68705119307796E-19
      5.62397081950232E-20   2.24944827502820E-19  -5.21290107565057E-15   0.00000000000000E+00   0.00000000000000E+00
      0.00000000000000E+00   0.00000000000000E+00  -1.68705119307796E-19  -5.62397081950232E-20  -2.24944827502820E-19
      5.21290107565058E-15
      0.00000000000000E+00
      1.00000000000000E-02   1.00000000000000E-02   0.00000000000000E+00   0.00000000000000E+00   1.68704931426304E-19
      5.62396660977966E-20   2.24944597524100E-19  -5.21290107564859E-15   0.00000000000000E+00   0.00000000000000E+00
      0.00000000000000E+00   0.00000000000000E+00  -1.68704931426304E-19  -5.62396660977966E-20  -2.24944597524100E-19
      5.21290107564859E-15
      1.00000000000000E-01
      1.90000000000000E-02   1.90000000000000E-02   0.00000000000000E+00   0.00000000000000E+00   3.87672823898799E-19
      1.29234952296321E-19   5.16907776195119E-19  -5.18417131500260E-15   0.00000000000000E+00   0.00000000000000E+00
      0.00000000000000E+00   0.00000000000000E+00  -3.87672823898799E-19  -1.29234952296320E-19  -5.16907776195119E-19
      5.18417131500261E-15
      2.00000000000000E-01
      2.80000000000000E-02   2.80000000000000E-02   0.00000000000000E+00   0.00000000000000E+00   6.97782022629091E-19
      2.32613186835465E-19   9.30395209464556E-19  -5.15528212432442E-15   0.00000000000000E+00   0.00000000000000E+00
      0.00000000000000E+00   0.00000000000000E+00  -6.97782022629092E-19  -2.32613186835465E-19  -9.30395209464556E-19
      5.15528212432452E-15
      3.00000000000000E-01
      3.70000000000000E-02   3.70000000000000E-02   0.00000000000000E+00   0.00000000000000E+00   1.13697407669127E-18
      3.79022480299708E-19   1.51599655699098E-18  -5.12623069291872E-15   0.00000000000000E+00   0.00000000000000E+00
      0.00000000000000E+00   0.00000000000000E+00  -1.13697407669127E-18  -3.79022480299708E-19  -1.51599655699098E-18
      5.12623069291860E-15
      4.00000000000000E-01
      4.60000000000000E-02   4.60000000000000E-02   0.00000000000000E+00   0.00000000000000E+00   1.75898409250424E-18
      5.86375943139129E-19   2.34536003564337E-18  -5.09701411524737E-15   0.00000000000000E+00   0.00000000000000E+00
      0.00000000000000E+00   0.00000000000000E+00  -1.75898409250424E-18  -5.86375943139129E-19  -2.34536003564337E-18
      5.09701411524726E-15
      5.00000000000000E-01
      5.50000000000000E-02   5.50000000000000E-02   0.00000000000000E+00   0.00000000000000E+00   2.63991822532614E-18
      8.80044333070342E-19   3.51996255839648E-18  -5.06762938949412E-15   0.00000000000000E+00   0.00000000000000E+00
      0.00000000000000E+00   0.00000000000000E+00  -2.63991822532614E-18  -8.80044333070342E-19  -3.51996255839648E-18
      5.06762938949414E-15
      6.00000000000000E-01
      6.40000000000000E-02   6.40000000000000E-02   0.00000000000000E+00   0.00000000000000E+00   3.88756211035121E-18
      1.29595899129660E-18   5.18352110164782E-18  -5.03807341643677E-15   0.00000000000000E+00   0.00000000000000E+00
      0.00000000000000E+00   0.00000000000000E+00  -3.88756211035121E-18  -1.29595899129660E-18  -5.18352110164782E-18
      5.03807341643674E-15
      7.00000000000000E-01
      7.30000000000000E-02   7.30000000000000E-02   0.00000000000000E+00   0.00000000000000E+00   5.65457322035062E-18
      1.88500969423080E-18   7.53958291458143E-18  -5.00834299859305E-15   0.00000000000000E+00   0.00000000000000E+00
      0.00000000000000E+00   0.00000000000000E+00  -5.65457322035062E-18  -1.88500969423080E-18  -7.53958291458143E-18
      5.00834299859308E-15
      8.00000000000000E-01
      8.20000000000000E-02   8.20000000000000E-02   0.00000000000000E+00   0.00000000000000E+00   8.15715636693571E-18
      2.71927029134537E-18   1.08764266582811E-17  -4.97843483961182E-15   0.00000000000000E+00   0.00000000000000E+00
      0.00000000000000E+00   0.00000000000000E+00  -8.15715636693571E-18  -2.71927029134537E-18  -1.08764266582811E-17
      4.97843483961181E-15
      9.00000000000000E-01
      9.10000000000000E-02   9.10000000000000E-02   0.00000000000000E+00   0.00000000000000E+00   1.17015198508947E-17
      3.90081812579483E-18   1.56023379766895E-17  -4.94834554385867E-15   0.00000000000000E+00   0.00000000000000E+00
      0.00000000000000E+00   0.00000000000000E+00  -1.17015198508947E-17  -3.90081812579483E-18  -1.56023379766895E-17
      4.94834554385876E-15
      1.00000000000000E+00
      1.00000000000000E-01   1.00000000000000E-01   0.00000000000000E+00   0.00000000000000E+00   1.67213409188400E-17
      5.57422331741624E-18   2.22955642362563E-17  -4.91807161613793E-15   0.00000000000000E+00   0.00000000000000E+00
      0.00000000000000E+00   0.00000000000000E+00  -1.67213409188400E-17  -5.57422331741624E-18  -2.22955642362563E-17
      4.91807161613795E-15
      0.00000000000000E+00
      1.00000000000000E-01   1.00000000000000E-01   0.00000000000000E+00   0.00000000000000E+00   1.67213396331317E-17
      5.57422287062435E-18   2.22955625037561E-17  -4.91807161613793E-15   0.00000000000000E+00   0.00000000000000E+00
      0.00000000000000E+00   0.00000000000000E+00  -1.67213396331317E-17  -5.57422287062435E-18  -2.22955625037561E-17
      4.91807161613795E-15
      2.00000000000000E-02
      1.18000000000000E-01   1.18000000000000E-01   0.00000000000000E+00   0.00000000000000E+00   3.38998701308939E-17
      1.13008461436209E-17   4.52007162745148E-17  -4.85695538486567E-15   0.00000000000000E+00   0.00000000000000E+00
      0.00000000000000E+00   0.00000000000000E+00  -3.38998701308939E-17  -1.13008461436209E-17  -4.52007162745148E-17
      4.85695538486571E-15
      4.00000000000000E-02
      1.36000000000000E-01   1.36000000000000E-01   0.00000000000000E+00   0.00000000000000E+00   6.83575277035433E-17
      2.27876182961156E-17   9.11451459996589E-17  -4.79505618315611E-15   0.00000000000000E+00   0.00000000000000E+00
      0.00000000000000E+00   0.00000000000000E+00  -6.83575277035433E-17  -2.27876182961156E-17  -9.11451459996589E-17
      4.79505618315602E-15
      6.00000000000000E-02
      1.54000000000000E-01   1.54000000000000E-01   0.00000000000000E+00   0.00000000000000E+00   1.37474718112406E-16
      4.58284409575926E-17   1.83303159069998E-16  -4.73234242887366E-15   0.00000000000000E+00   0.00000000000000E+00
      0.00000000000000E+00   0.00000000000000E+00  -1.37474718112406E-16  -4.58284409575926E-17  -1.83303159069998E-16
      4.73234242887377E-15
      8.00000000000000E-02
      1.72000000000000E-01   1.72000000000000E-01   0.00000000000000E+00   0.00000000000000E+00   2.76114195140820E-16
      9.20450898816429E-17   3.68159285022463E-16  -4.66878087788843E-15   0.00000000000000E+00   0.00000000000000E+00
      0.00000000000000E+00   0.00000000000000E+00  -2.76114195140820E-16  -9.20450898816429E-17  -3.68159285022463E-16
      4.66878087788843E-15
      1.00000000000000E-01
      1.90000000000000E-01   1.90000000000000E-01   0.00000000000000E+00   0.00000000000000E+00   5.54201680715721E-16
      1.84747844683176E-16   7.38949525398896E-16  -4.60433653906186E-15   0.00000000000000E+00   0.00000000000000E+00
      0.00000000000000E+00   0.00000000000000E+00  -5.54201680715721E-16  -1.84747844683176E-16  -7.38949525398896E-16
      4.60433653906194E-15
      1.20000000000000E-01
      2.08000000000000E-01   2.08000000000000E-01   0.00000000000000E+00   0.00000000000000E+00   1.11199963375793E-15
      3.70694233831133E-16   1.48269386758906E-15  -4.53897252724529E-15   0.00000000000000E+00   0.00000000000000E+00
      0.00000000000000E+00   0.00000000000000E+00  -1.11199963375793E-15  -3.70694233831133E-16  -1.48269386758906E-15
      4.53897252724536E-15
      1.40000000000000E-01
      2.26000000000000E-01   2.26000000000000E-01   0.00000000000000E+00   0.00000000000000E+00   2.23084773630056E-15
      7.43670843782130E-16   2.97451858008269E-15  -4.47264983487178E-15   0.00000000000000E+00   0.00000000000000E+00
      0.00000000000000E+00   0.00000000000000E+00  -2.23084773630056E-15  -7.43670843782130E-16  -2.97451858008269E-15
      4.47264983487174E-15
      1.60000000000000E-01
      2.44000000000000E-01   2.44000000000000E-01   0.00000000000000E+00   0.00000000000000E+00   4.47506026344980E-15
      1.49179569182240E-15   5.96685595527220E-15  -4.40532700461875E-15   0.00000000000000E+00   0.00000000000000E+00
      0.00000000000000E+00   0.00000000000000E+00  -4.47506026344980E-15  -1.49179569182240E-15  -5.96685595527220E-15
      4.40532700461872E-15
      1.80000000000000E-01
      2.62000000000000E-01   2.62000000000000E-01   0.00000000000000E+00   0.00000000000000E+00   8.97654114402203E-15
      2.99239633966926E-15   1.19689374836913E-14  -4.33695968950409E-15   0.00000000000000E+00   0.00000000000000E+00
      0.00000000000000E+00   0.00000000000000E+00  -8.97654114402203E-15  -2.99239633966926E-15  -1.19689374836913E-14
      4.33695968950404E-15
      2.00000000000000E-01
      2.80000000000000E-01   2.80000000000000E-01   0.00000000000000E+00   0.00000000000000E+00   1.80056590821464E-14
      6.00231432726228E-15   2.40079734094086E-14  -4.26750009263752E-15   0.00000000000000E+00   0.00000000000000E+00
      0.00000000000000E+00   0.00000000000000E+00  -1.80056590821464E-14  -6.00231432726228E-15  -2.40079734094086E-14
      4.26750009263756E-15
      2.20000000000000E-01
      2.98000000000000E-01   2.98000000000000E-01   0.00000000000000E+00   0.00000000000000E+00   3.61162926183807E-14
      1.20396120036648E-14   4.81559046220455E-14  -4.19689628642080E-15   0.00000000000000E+00   0.00000000000000E+00
      0.00000000000000E+00   0.00000000000000E+00  -3.61162926183807E-14  -1.20396120036648E-14  -4.81559046220455E-14
      4.19689628642074E-15
      2.40000000000000E-01
      3.16000000000000E-01   3.16000000000000E-01   0.00000000000000E+00   0.00000000000000E+00   7.24425189257985E-14
      2.41491851456380E-14   9.65917040714364E-14  -4.12509141972454E-15   0.00000000000000E+00   0.00000000000000E+00
      0.00000000000000E+00   0.00000000000000E+00  -7.24425189257985E-14  -2.41491851456380E-14  -9.65917040714364E-14
      4.12509141972447E-15
      2.60000000000000E-01
      3.34000000000000E-01   3.34000000000000E-01   0.00000000000000E+00   0.00000000000000E+00   1.45305198023138E-13
      4.84383891884389E-14   1.93743587211577E-13  -4.05202283063738E-15   0.00000000000000E+00   0.00000000000000E+00
      0.00000000000000E+00   0.00000000000000E+00  -1.45305198023138E-13  -4.84383891884389E-14  -1.93743587211577E-13
      4.05202283063735E-15
      2.80000000000000E-01
      3.52000000000000E-01   3.52000000000000E-01   0.00000000000000E+00   0.00000000000000E+00   2.91451587858657E-13
      9.71571045548688E-14   3.88608692413526E-13  -3.97762109055563E-15   0.00000000000000E+00   0.00000000000000E+00
      0.00000000000000E+00   0.00000000000000E+00  -2.91451587858657E-13  -9.71571045548688E-14  -3.88608692413526E-13
      3.97762109055559E-15
      3.00000000000000E-01
      3.70000000000000E-01   3.70000000000000E-01   0.00000000000000E+00   0.00000000000000E+00   5.84587502310566E-13
      1.94875504719605E-13   7.79463007030171E-13  -3.90180901103985E-15   0.00000000000000E+00   0.00000000000000E+00
      0.00000000000000E+00   0.00000000000000E+00  -5.84587502310566E-13  -1.94875504719605E-13  -7.79463007030171E-13
      3.90180901103980E-15
      3.20000000000000E-01
      3.88000000000000E-01   3.88000000000000E-01   0.00000000000000E+00   0.00000000000000E+00   1.17254755574999E-12
      3.90874890699401E-13   1.56342244644939E-12  -3.82450064591409E-15   0.00000000000000E+00   0.00000000000000E+00
      0.00000000000000E+00   0.00000000000000E+00  -1.17254755574999E-12  -3.90874890699401E-13  -1.56342244644939E-12
      3.82450064591412E-15
      3.40000000000000E-01
      4.06000000000000E-01   4.06000000000000E-01   0.00000000000000E+00   0.00000000000000E+00   2.35184760526002E-12
      7.83999988216702E-13   3.13584759347672E-12  -3.74560031503987E-15   0.00000000000000E+00   0.00000000000000E+00
      0.00000000000000E+00   0.00000000000000E+00  -2.35184760526002E-12  -7.83999988216702E-13  -3.13584759347672E-12
      3.74560031503991E-15
      3.60000000000000E-01
      4.24000000000000E-01   4.24000000000000E-01   0.00000000000000E+00   0.00000000000000E+00   4.71721364377047E-12
      1.57250483037911E-12   6.28971847414958E-12  -3.66500166036225E-15   0.00000000000000E+00   0.00000000000000E+00
      0.00000000000000E+00   0.00000000000000E+00  -4.71721364377047E-12  -1.57250483037911E-12  -6.28971847414958E-12
      3.66500166036228E-15
      3.80000000000000E-01
      4.42000000000000E-01   4.42000000000000E-01   0.00000000000000E+00   0.00000000000000E+00   9.46148763272395E-12
      3.15402710660021E-12   1.26155147393242E-11  -3.58258671683803E-15   0.00000000000000E+00   0.00000000000000E+00
      0.00000000000000E+00   0.00000000000000E+00  -9.46148763272395E-12  -3.15402710660021E-12  -1.26155147393242E-11
      3.58258671683803E-15
      4.00000000000000E-01
      4.60000000000000E-01   4.60000000000000E-01   0.00000000000000E+00   0.00000000000000E+00   1.89771348006866E-11
      6.32610186570879E-12   2.53032366663954E-11  -3.49822493946940E-15   0.00000000000000E+00   0.00000000000000E+00
      0.00000000000000E+00   0.00000000000000E+00  -1.89771348006866E-11  -6.32610186570879E-12  -2.53032366663954E-11
      3.49822493946935E-15
      4.20000000000000E-01
      4.78000000000000E-01   4.78000000000000E-01   0.00000000000000E+00   0.00000000000000E+00   3.80626473879889E-11
      1.26883182062077E-11   5.07509655941966E-11  -3.41177207400037E-15   0.00000000000000E+00   0.00000000000000E+00
      0.00000000000000E+00   0.00000000000000E+00  -3.80626473879889E-11  -1.26883182062077E-11  -5.07509655941966E-11
      3.41177207400041E-15
      4.40000000000000E-01
      4.96000000000000E-01   4.96000000000000E-01   0.00000000000000E+00   0.00000000000000E+00   7.63421224160950E-11
      2.54488885216575E-11   1.01791010937753E-10  -3.32306869777281E-15   0.00000000000000E+00   0.00000000000000E+00
      0.00000000000000E+00   0.00000000000000E+00  -7.63421224160950E-11  -2.54488885216575E-11  -1.01791010937753E-10
      3.32306869777278E-15
      4.60000000000000E-01
      5.14000000000000E-01   5.14000000000000E-01   0.00000000000000E+00   0.00000000000000E+00   1.53117932407078E-10
      5.10422901618141E-11   2.04160222568892E-10  -3.23193819886059E-15   0.00000000000000E+00   0.00000000000000E+00
      0.00000000000000E+00   0.00000000000000E+00  -1.53117932407078E-10  -5.10422901618141E-11  -2.04160222568892E-10
      3.23193819886062E-15
      4.80000000000000E-01
      5.32000000000000E-01   5.32000000000000E-01   0.00000000000000E+00   0.00000000000000E+00   3.07103012280602E-10
      1.02373526590161E-10   4.09476538870763E-10  -3.13818392239696E-15   0.00000000000000E+00   0.00000000000000E+00
      0.00000000000000E+00   0.00000000000000E+00  -3.07103012280602E-10  -1.02373526590161E-10  -4.09476538870763E-10
      3.13818392239695E-15
      5.00000000000000E-01
      5.50000000000000E-01   5.50000000000000E-01   0.00000000000000E+00   0.00000000000000E+00   6.15939045633411E-10
      2.05324512059691E-10   8.21263557693102E-10  -3.04158521675876E-15   0.00000000000000E+00   0.00000000000000E+00
      0.00000000000000E+00   0.00000000000000E+00  -6.15939045633411E-10  -2.05324512059691E-10  -8.21263557693102E-10
      3.04158521675870E-15
      5.20000000000000E-01
      5.68000000000000E-01   5.68000000000000E-01   0.00000000000000E+00   0.00000000000000E+00   1.23533910743777E-09
      4.11802246027376E-10   1.64714135346515E-09  -2.94189219112667E-15   0.00000000000000E+00   0.00000000000000E+00
      0.00000000000000E+00   0.00000000000000E+00  -1.23533910743777E-09  -4.11802246027376E-10  -1.64714135346515E-09
      2.94189219112661E-15
      5.40000000000000E-01
      5.86000000000000E-01   5.86000000000000E-01   0.00000000000000E+00   0.00000000000000E+00   2.47758211534878E-09
      8.25904843517108E-10   3.30348695886588E-09  -2.83881919248039E-15   0.00000000000000E+00   0.00000000000000E+00
      0.00000000000000E+00   0.00000000000000E+00  -2.47758211534878E-09  -8.25904843517108E-10  -3.30348695886588E-09
      2.83881919248025E-15
      5.60000000000000E-01
      6.04000000000000E-01   6.04000000000000E-01   0.00000000000000E+00   0.00000000000000E+00   4.96890770264085E-09
      1.65638882675446E-09   6.62529652939530E-09  -2.73203738180129E-15   0.00000000000000E+00   0.00000000000000E+00
      0.00000000000000E+00   0.00000000000000E+00  -4.96890770264085E-09  -1.65638882675446E-09  -6.62529652939531E-09
      2.73203738180121E-15
      5.80000000000000E-01
      6.22000000000000E-01   6.22000000000000E-01   0.00000000000000E+00   0.00000000000000E+00   9.96507139428746E-09
      3.32185862758822E-09   1.32869300218757E-08  -2.62116741682320E-15   0.00000000000000E+00   0.00000000000000E+00
      0.00000000000000E+00   0.00000000000000E+00  -9.96507139428746E-09  -3.32185862758822E-09  -1.32869300218757E-08
      2.62116741682318E-15
      6.00000000000000E-01
      6.40000000000000E-01   6.40000000000000E-01   0.00000000000000E+00   0.00000000000000E+00   1.99838070599595E-08
      6.66159570703252E-09   2.66454027669921E-08  -2.50577424915312E-15   0.00000000000000E+00   0.00000000000000E+00
      0.00000000000000E+00   0.00000000000000E+00  -1.99838070599595E-08  -6.66159570703252E-09  -2.66454027669921E-08
      2.50577424915309E-15
      6.20000000000000E-01
      6.58000000000000E-01   6.58000000000000E-01   0.00000000000000E+00   0.00000000000000E+00   4.00717589989739E-08
      1.33578841745397E-08   5.34296431735136E-08  -2.38536759023243E-15   0.00000000000000E+00   0.00000000000000E+00
      0.00000000000000E+00   0.00000000000000E+00  -4.00717589989739E-08  -1.33578841745397E-08  -5.34296431735136E-08
      2.38536759023235E-15
      6.40000000000000E-01
      6.76000000000000E-01   6.76000000000000E-01   0.00000000000000E+00   0.00000000000000E+00   8.03396176891979E-08
      2.67810806000179E-08   1.07120698289216E-07  -2.25941395207509E-15   0.00000000000000E+00   0.00000000000000E+00
      0.00000000000000E+00   0.00000000000000E+00  -8.03396176891979E-08  -2.67810806000179E-08  -1.07120698289216E-07
      2.25941395207508E-15
      6.60000000000000E-01
      6.94000000000000E-01   6.94000000000000E-01   0.00000000000000E+00   0.00000000000000E+00   1.61024094078899E-07
      5.36769698932838E-08   2.14701063972182E-07  -2.12736971030985E-15   0.00000000000000E+00   0.00000000000000E+00
      0.00000000000000E+00   0.00000000000000E+00  -1.61024094078899E-07  -5.36769698932838E-08  -2.14701063972182E-07
      2.12736971030984E-15
      6.80000000000000E-01
      7.12000000000000E-01   7.12000000000000E-01   0.00000000000000E+00   0.00000000000000E+00   3.22552445033133E-07
      1.07521604524442E-07   4.30074049557574E-07  -1.98874991046899E-15   0.00000000000000E+00   0.00000000000000E+00
      0.00000000000000E+00   0.00000000000000E+00  -3.22552445033133E-07  -1.07521604524442E-07  -4.30074049557574E-07
      1.98874991046899E-15
      7.00000000000000E-01
      7.30000000000000E-01   7.30000000000000E-01   0.00000000000000E+00   0.00000000000000E+00   6.45384600878339E-07
      2.15135101551265E-07   8.60519702429603E-07  -1.84325509081018E-15   0.00000000000000E+00   0.00000000000000E+00
      0.00000000000000E+00   0.00000000000000E+00  -6.45384600878339E-07  -2.15135101551265E-07  -8.60519702429603E-07
      1.84325509081025E-15
      7.20000000000000E-01
      7.48000000000000E-01   7.48000000000000E-01   0.00000000000000E+00   0.00000000000000E+00   1.28847523445333E-06
      4.29500947290920E-07   1.71797618174425E-06  -1.69098770606549E-15   0.00000000000000E+00   0.00000000000000E+00
      0.00000000000000E+00   0.00000000000000E+00  -1.28847523445333E-06  -4.29500947290920E-07  -1.71797618174425E-06
      1.69098770606550E-15
      7.40000000000000E-01
      7.66000000000000E-01   7.66000000000000E-01   0.00000000000000E+00   0.00000000000000E+00   2.56134235834193E-06
      8.53782856484182E-07   3.41512521482611E-06  -1.53279479058273E-15   0.00000000000000E+00   0.00000000000000E+00
      0.00000000000000E+00   0.00000000000000E+00  -2.56134235834193E-06  -8.53782856484182E-07  -3.41512521482611E-06
      1.53279479058268E-15
      7.60000000000000E-01
      7.84000000000000E-01   7.84000000000000E-01   0.00000000000000E+00   0.00000000000000E+00   5.05019389786683E-06
      1.68334406687391E-06   6.73353796474074E-06  -1.37074958937292E-15   0.00000000000000E+00   0.00000000000000E+00
      0.00000000000000E+00   0.00000000000000E+00  -5.05019389786683E-06  -1.68334406687391E-06  -6.73353796474074E-06
      1.37074958937293E-15
      7.80000000000000E-01
      8.02000000000000E-01   8.02000000000000E-01   0.00000000000000E+00   0.00000000000000E+00   9.80970519762794E-06
      3.26959648339692E-06   1.30793016810249E-05  -1.20866607476618E-15   0.00000000000000E+00   0.00000000000000E+00
      0.00000000000000E+00   0.00000000000000E+00  -9.80970519762794E-06  -3.26959648339692E-06  -1.30793016810249E-05
      1.20866607476615E-15
      8.00000000000000E-01
      8.20000000000000E-01   8.20000000000000E-01   0.00000000000000E+00   0.00000000000000E+00   1.85755929874037E-05
      6.19064635567862E-06   2.47662393430824E-05  -1.05224587264333E-15   0.00000000000000E+00   0.00000000000000E+00
      0.00000000000000E+00   0.00000000000000E+00  -1.85755929874037E-05  -6.19064635567862E-06  -2.47662393430824E-05
      1.05224587264333E-15
      8.20000000000000E-01
      8.38000000000000E-01   8.38000000000000E-01   0.00000000000000E+00   0.00000000000000E+00   3.38312806093551E-05
      1.12730881978507E-05   4.51043688072058E-05  -9.08165436494908E-16   0.00000000000000E+00   0.00000000000000E+00
      0.00000000000000E+00   0.00000000000000E+00  -3.38312806093551E-05  -1.12730881978507E-05  -4.51043688072058E-05
      9.08165436494902E-16
      8.40000000000000E-01
      8.56000000000000E-01   8.56000000000000E-01   0.00000000000000E+00   0.00000000000000E+00   5.85114752110835E-05
      1.94927145427494E-05   7.80041897538329E-05  -7.81927980163947E-16   0.00000000000000E+00   0.00000000000000E+00
      0.00000000000000E+00   0.00000000000000E+00  -5.85114752110835E-05  -1.94927145427494E-05  -7.80041897538329E-05
      7.81927980163941E-16
      8.60000000000000E-01
      8.74000000000000E-01   8.74000000000000E-01   0.00000000000000E+00   0.00000000000000E+00   9.53983975975080E-05
      3.17732653206596E-05   1.27171662918168E-04  -6.75871904702712E-16   0.00000000000000E+00   0.00000000000000E+00
      0.00000000000000E+00   0.00000000000000E+00  -9.53983975975080E-05  -3.17732653206596E-05  -1.27171662918168E-04
      6.75871904702715E-16
      8.80000000000000E-01
      8.92000000000000E-01   8.92000000000000E-01   0.00000000000000E+00   0.00000000000000E+00   1.46630619765250E-04
      4.88234767904048E-05   1.95454096555655E-04  -5.89045479596565E-16   0.00000000000000E+00   0.00000000000000E+00
      0.00000000000000E+00   0.00000000000000E+00  -1.46630619765250E-04  -4.88234767904048E-05  -1.95454096555655E-04
      5.89045479596567E-16
      9.00000000000000E-01
      9.10000000000000E-01   9.10000000000000E-01   0.00000000000000E+00   0.00000000000000E+00   2.13604275963042E-04
      7.11050999597182E-05   2.84709375922761E-04  -5.18630361182410E-16   0.00000000000000E+00   0.00000000000000E+00
      0.00000000000000E+00   0.00000000000000E+00  -2.13604275963042E-04  -7.11050999597182E-05  -2.84709375922761E-04
      5.18630361182406E-16
      9.20000000000000E-01
      9.28000000000000E-01   9.28000000000000E-01   0.00000000000000E+00   0.00000000000000E+00   2.97140115263338E-04
      9.88890494713551E-05   3.96029164734693E-04  -4.61397308823415E-16   0.00000000000000E+00   0.00000000000000E+00
      0.00000000000000E+00   0.00000000000000E+00  -2.97140115263338E-04  -9.88890494713551E-05  -3.96029164734693E-04
      4.61397308823417E-16
      9.40000000000001E-01