DF-ISE text

Info {
  version   = 1.0
  type      = xyplot
  datasets  = [
    "time"
    "n OuterVoltage" "n InnerVoltage" "n QuasiFermiPotential" "n DisplacementCurrent" "n eCurrent"
    "n hCurrent" "n TotalCurrent" "n Charge" "p OuterVoltage" "p InnerVoltage"
    "p QuasiFermiPotential" "p DisplacementCurrent" "p eCurrent" "p hCurrent" "p TotalCurrent"
    "p Charge" ]
  functions = [
    Time
    OuterVoltage InnerVoltage QuasiFermiPotential DisplacementCurrent eCurrent
    hCurrent TotalCurrent Charge OuterVoltage InnerVoltage
    QuasiFermiPotential DisplacementCurrent eCurrent hCurrent TotalCurrent
    Charge ]
}

Data {
      0.00000000000000E+00
      0.00000000000000E+00   0.00000000000000E+00   0.00000000000000E+00   0.00000000000000E+00  -6.53175169967776E-03
      1.19803369811880E-18  -6.53175169967776E-03  -2.18075231958552E-17   2.00000000000000E+00   2.00000000000000E+00
      0.00000000000000E+00   0.00000000000000E+00   4.67270138318983E-03   1.85905031648793E-03   6.53175169967776E-03
      2.18075231958553E-17
      2.00000000000000E-02
      0.00000000000000E+00   0.00000000000000E+00   0.00000000000000E+00   0.00000000000000E+00  -5.69296851939036E-03
     -7.79836765268826E-16  -5.69296851939114E-03  -1.90940886195461E-17   1.86000000000000E+00   1.86000000000000E+00
      0.00000000000000E+00   0.00000000000000E+00   4.08289348811298E-03   1.61007503127815E-03   5.69296851939113E-03
      1.90940886195462E-17
      4.00000000000000E-02
      0.00000000000000E+00   0.00000000000000E+00   0.00000000000000E+00   0.00000000000000E+00  -4.84407916836044E-03
     -1.95361700556210E-14  -4.84407916837997E-03  -1.62073869960829E-17   1.72000000000000E+00   1.72000000000000E+00
      0.00000000000000E+00   0.00000000000000E+00   3.48492045580690E-03   1.35915871257308E-03   4.84407916837997E-03
      1.62073869960830E-17
      6.00000000000000E-02
      0.00000000000000E+00   0.00000000000000E+00   0.00000000000000E+00   0.00000000000000E+00  -3.98550050748217E-03
      1.10999503271052E-18  -3.98550050748217E-03  -1.30786058087399E-17   1.58000000000000E+00   1.58000000000000E+00
      0.00000000000000E+00   0.00000000000000E+00   2.87876058544361E-03   1.10673992203856E-03   3.98550050748217E-03
      1.30786058087399E-17
      8.00000000000000E-02
      0.00000000000000E+00   0.00000000000000E+00   0.00000000000000E+00   0.00000000000000E+00  -3.11874656079532E-03
     -2.38500726239235E-18  -3.11874656079532E-03  -9.58622089203341E-18   1.44000000000000E+00   1.44000000000000E+00
      0.00000000000000E+00   0.00000000000000E+00   2.26498879262380E-03   8.53757768171518E-04   3.11874656079532E-03
      9.58622089203337E-18
      1.00000000000000E-01
      0.00000000000000E+00   0.00000000000000E+00   0.00000000000000E+00   0.00000000000000E+00  -2.24685840840370E-03
     -1.69117409790428E-16  -2.24685840840387E-03  -5.47634163953419E-18   1.30000000000000E+00   1.30000000000000E+00
      0.00000000000000E+00   0.00000000000000E+00   1.64491017086146E-03   6.01948237542405E-04   2.24685840840387E-03
      5.47634163953426E-18
      1.20000000000000E-01
      0.00000000000000E+00   0.00000000000000E+00   0.00000000000000E+00   0.00000000000000E+00  -1.38054090570757E-03
     -2.93229655118576E-14  -1.38054090573690E-03  -8.96752566669743E-20   1.16000000000000E+00   1.16000000000000E+00
      0.00000000000000E+00   0.00000000000000E+00   1.02450099517816E-03   3.56039910558731E-04   1.38054090573690E-03
      8.96752566669306E-20
      1.40000000000000E-01
      0.00000000000000E+00   0.00000000000000E+00   0.00000000000000E+00   0.00000000000000E+00  -5.95218877603150E-04
      1.03401191319357E-18  -5.95218877603149E-04   8.72532425663791E-18   1.02000000000000E+00   1.02000000000000E+00
      0.00000000000000E+00   0.00000000000000E+00   4.54265359512195E-04   1.40953518090954E-04   5.95218877603148E-04
     -8.72532425663787E-18
      1.60000000000000E-01
      0.00000000000000E+00   0.00000000000000E+00   0.00000000000000E+00   0.00000000000000E+00  -1.06369933727784E-04
      1.00381611642626E-15  -1.06369933726780E-04   3.31622565882937E-17   8.80000000000000E-01   8.80000000000000E-01
      0.00000000000000E+00   0.00000000000000E+00   8.64625862563869E-05   1.99073474703935E-05   1.06369933726780E-04
     -3.31622565882937E-17
      1.80000000000000E-01
      0.00000000000000E+00   0.00000000000000E+00   0.00000000000000E+00   0.00000000000000E+00  -2.12779464717079E-06
     -5.47960506196211E-20  -2.12779464717085E-06   1.40383777026036E-16   7.40000000000000E-01   7.40000000000000E-01
      0.00000000000000E+00   0.00000000000000E+00   1.83391067702851E-06   2.93883970142336E-07   2.12779464717084E-06
     -1.40383777026036E-16
      2.00000000000000E-01
      0.00000000000000E+00   0.00000000000000E+00   0.00000000000000E+00   0.00000000000000E+00  -1.03083697590665E-08
     -1.30047874140728E-21  -1.03083697590678E-08   2.92964668213718E-16   6.00000000000000E-01   6.00000000000000E-01
      0.00000000000000E+00   0.00000000000000E+00   8.89484100148572E-09   1.41352875758205E-09   1.03083697590678E-08
     -2.92964668213719E-16
      2.20000000000000E-01
      0.00000000000000E+00   0.00000000000000E+00   0.00000000000000E+00   0.00000000000000E+00  -4.67741500498634E-11
      7.97758231503493E-23  -4.67741500497836E-11   4.15545679594614E-16   4.60000000000000E-01   4.60000000000000E-01
      0.00000000000000E+00   0.00000000000000E+00   4.02968833903380E-11   6.47726665944559E-12   4.67741500497836E-11
     -4.15545679594614E-16
      2.40000000000000E-01
      0.00000000000000E+00   0.00000000000000E+00   0.00000000000000E+00   0.00000000000000E+00  -2.11302824517708E-13
     -3.24196236303340E-25  -2.11302824518032E-13   5.20022989578501E-16   3.20000000000000E-01   3.20000000000000E-01
      0.00000000000000E+00   0.00000000000000E+00   1.81743835228310E-13   2.95589892897220E-14   2.11302824518032E-13
     -5.20022989578501E-16
      2.60000000000000E-01
      0.00000000000000E+00   0.00000000000000E+00   0.00000000000000E+00   0.00000000000000E+00  -9.51343372312819E-16
     -1.20171524507559E-25  -9.51343372432990E-16   6.11861976720281E-16   1.80000000000000E-01   1.80000000000000E-01
      0.00000000000000E+00   0.00000000000000E+00   8.17015439277333E-16   1.34327933155657E-16   9.51343372432990E-16
     -6.11861976720282E-16
      2.80000000000000E-01
      0.00000000000000E+00   0.00000000000000E+00   0.00000000000000E+00   0.00000000000000E+00  -3.37438541097646E-18
      6.52976895796831E-27  -3.37438540444669E-18   6.93894969397035E-16   4.00000000000003E-02   4.00000000000003E-02
      0.00000000000000E+00   0.00000000000000E+00   2.89417900815872E-18   4.80206396287965E-19   3.37438540444669E-18
     -6.93894969397038E-16
      3.00000000000000E-01
      0.00000000000000E+00   0.00000000000000E+00   0.00000000000000E+00   0.00000000000000E+00   9.01240336870415E-19
      4.12113889128624E-24   9.01244458009306E-19   7.69804261400778E-16  -1.00000000000000E-01  -1.00000000000000E-01
      0.00000000000000E+00   0.00000000000000E+00  -7.71662742952136E-19  -1.29581715057172E-19  -9.01244458009308E-19
     -7.69804261400779E-16
      3.20000000000000E-01
      0.00000000000000E+00   0.00000000000000E+00   0.00000000000000E+00   0.00000000000000E+00   9.29702252413344E-19
     -2.66734388544043E-25   9.29701985678955E-19   8.41838203199837E-16  -2.40000000000000E-01  -2.40000000000000E-01
      0.00000000000000E+00   0.00000000000000E+00  -7.94823520894423E-19  -1.34878464784532E-19  -9.29701985678955E-19
     -8.41838203199837E-16
      3.40000000000000E-01
      0.00000000000000E+00   0.00000000000000E+00   0.00000000000000E+00   0.00000000000000E+00   9.38144598397575E-19
      3.02626214870919E-25   9.38144901023790E-19   9.10962249757673E-16  -3.80000000000000E-01  -3.80000000000000E-01
      0.00000000000000E+00   0.00000000000000E+00  -8.00644081962926E-19  -1.37500819060861E-19  -9.38144901023787E-19
     -9.10962249757675E-16
      3.60000000000000E-01
      0.00000000000000E+00   0.00000000000000E+00   0.00000000000000E+00   0.00000000000000E+00   9.45782651089133E-19
      8.00120148516024E-27   9.45782659090334E-19   9.77571230512674E-16  -5.20000000000000E-01  -5.20000000000000E-01
      0.00000000000000E+00   0.00000000000000E+00  -8.05615026142802E-19  -1.40167632947535E-19  -9.45782659090337E-19
     -9.77571230512673E-16
      3.80000000000000E-01
      0.00000000000000E+00   0.00000000000000E+00   0.00000000000000E+00   0.00000000000000E+00   9.52929831720049E-19
      6.83774069513034E-26   9.52929900097456E-19   1.04180727651456E-15  -6.60000000000001E-01  -6.60000000000001E-01
      0.00000000000000E+00   0.00000000000000E+00  -8.10053785314856E-19  -1.42876114782596E-19  -9.52929900097452E-19
     -1.04180727651456E-15
      4.00000000000000E-01
      0.00000000000000E+00   0.00000000000000E+00   0.00000000000000E+00   0.00000000000000E+00   9.60620164258094E-19
      5.71274654974018E-26   9.60620221385559E-19   1.10371996283652E-15  -8.00000000000001E-01  -8.00000000000001E-01
      0.00000000000000E+00   0.00000000000000E+00  -8.15015208777007E-19  -1.45605012608548E-19  -9.60620221385555E-19
     -1.10371996283652E-15
      4.20000000000000E-01
      0.00000000000000E+00   0.00000000000000E+00   0.00000000000000E+00   0.00000000000000E+00   9.68645596987486E-19
     -9.16817860592650E-27   9.68645587819307E-19   1.16342774859870E-15  -9.40000000000001E-01  -9.40000000000001E-01
      0.00000000000000E+00   0.00000000000000E+00  -8.20299437783071E-19  -1.48346150036231E-19  -9.68645587819303E-19
     -1.16342774859870E-15
      4.40000000000000E-01
      0.00000000000000E+00   0.00000000000000E+00   0.00000000000000E+00   0.00000000000000E+00   9.75868472043302E-19
     -1.48509600340751E-26   9.75868457192342E-19   1.22120357233310E-15  -1.08000000000000E+00  -1.08000000000000E+00
      0.00000000000000E+00   0.00000000000000E+00  -8.24753508750156E-19  -1.51114948442187E-19  -9.75868457192343E-19
     -1.22120357233310E-15
      4.60000000000000E-01
      0.00000000000000E+00   0.00000000000000E+00   0.00000000000000E+00   0.00000000000000E+00   9.82890847791231E-19
      1.17290307594015E-26   9.82890859520262E-19   1.27737764663497E-15  -1.22000000000000E+00  -1.22000000000000E+00
      0.00000000000000E+00   0.00000000000000E+00  -8.28952420812853E-19  -1.53938438707416E-19  -9.82890859520269E-19
     -1.27737764663497E-15
      4.80000000000000E-01
      0.00000000000000E+00   0.00000000000000E+00   0.00000000000000E+00   0.00000000000000E+00   9.89838710062606E-19
      1.56164905486117E-28   9.89838710218771E-19   1.33221822541649E-15  -1.36000000000000E+00  -1.36000000000000E+00
      0.00000000000000E+00   0.00000000000000E+00  -8.32998463705086E-19  -1.56840246513685E-19  -9.89838710218770E-19
     -1.33221822541649E-15
      5.00000000000000E-01
      0.00000000000000E+00   0.00000000000000E+00   0.00000000000000E+00   0.00000000000000E+00   9.96758400113630E-19
     -1.15612796807171E-27   9.96758398957502E-19   1.38590874372897E-15  -1.50000000000000E+00  -1.50000000000000E+00
      0.00000000000000E+00   0.00000000000000E+00  -8.36921494410616E-19  -1.59836904546888E-19  -9.96758398957504E-19
     -1.38590874372897E-15
      5.20000000000000E-01
      0.00000000000000E+00   0.00000000000000E+00   0.00000000000000E+00   0.00000000000000E+00   1.00368286680459E-18
     -6.29170940753933E-27   1.00368286051288E-18   1.43857039905677E-15  -1.64000000000000E+00  -1.64000000000000E+00
      0.00000000000000E+00   0.00000000000000E+00  -8.40743693840514E-19  -1.62939166672366E-19  -1.00368286051288E-18
     -1.43857039905677E-15
      5.40000000000000E-01
      0.00000000000000E+00   0.00000000000000E+00   0.00000000000000E+00   0.00000000000000E+00   1.01062246683079E-18
      1.29687862651749E-27   1.01062246812767E-18   1.49028465474201E-15  -1.78000000000000E+00  -1.78000000000000E+00
      0.00000000000000E+00   0.00000000000000E+00  -8.44468814491926E-19  -1.66153653635737E-19  -1.01062246812766E-18
     -1.49028465474201E-15
      5.60000000000000E-01
      0.00000000000000E+00   0.00000000000000E+00   0.00000000000000E+00   0.00000000000000E+00   1.01757589448196E-18
      4.31049348728882E-27   1.01757589879246E-18   1.54110806300903E-15  -1.92000000000000E+00  -1.92000000000000E+00
      0.00000000000000E+00   0.00000000000000E+00  -8.48092344768241E-19  -1.69483554024221E-19  -1.01757589879246E-18
     -1.54110806300903E-15
      5.80000000000000E-01
      0.00000000000000E+00   0.00000000000000E+00   0.00000000000000E+00   0.00000000000000E+00   1.02453762204280E-18
      1.73223875804612E-29   1.02453762206012E-18   1.59108070489837E-15  -2.06000000000000E+00  -2.06000000000000E+00
      0.00000000000000E+00   0.00000000000000E+00  -8.51608511985754E-19  -1.72929110074370E-19  -1.02453762206012E-18
     -1.59108070489837E-15
      6.00000000000000E-01
      0.00000000000000E+00   0.00000000000000E+00   0.00000000000000E+00   0.00000000000000E+00   1.03150569276962E-18
     -2.27516256679523E-28   1.03150569254210E-18   1.64022961707309E-15  -2.20000000000000E+00  -2.20000000000000E+00
      0.00000000000000E+00   0.00000000000000E+00  -8.55017421480641E-19  -1.76488271061467E-19  -1.03150569254211E-18
     -1.64022961707309E-15
      6.20000000000000E-01
      0.00000000000000E+00   0.00000000000000E+00   0.00000000000000E+00   0.00000000000000E+00   1.03848376709737E-18
      4.45084003577837E-27   1.03848377154821E-18   1.68857369700396E-15  -2.34000000000000E+00  -2.34000000000000E+00
      0.00000000000000E+00   0.00000000000000E+00  -8.58325661906121E-19  -1.80158109642085E-19  -1.03848377154821E-18
     -1.68857369700396E-15
      6.40000000000000E-01
      0.00000000000000E+00   0.00000000000000E+00   0.00000000000000E+00   0.00000000000000E+00   1.04548014679723E-18
     -1.97308278222584E-27   1.04548014482415E-18   1.73613524034115E-15  -2.48000000000000E+00  -2.48000000000000E+00
      0.00000000000000E+00   0.00000000000000E+00  -8.61543042076728E-19  -1.83937102747417E-19  -1.04548014482414E-18
     -1.73613524034114E-15
      6.60000000000000E-01
      0.00000000000000E+00   0.00000000000000E+00   0.00000000000000E+00   0.00000000000000E+00   1.05250425273934E-18
      1.44718058904717E-27   1.05250425418653E-18   1.78295192965587E-15  -2.62000000000000E+00  -2.62000000000000E+00
      0.00000000000000E+00   0.00000000000000E+00  -8.64677027049398E-19  -1.87827227137134E-19  -1.05250425418653E-18
     -1.78295192965587E-15
      6.80000000000000E-01
      0.00000000000000E+00   0.00000000000000E+00   0.00000000000000E+00   0.00000000000000E+00   1.05956775554090E-18
     -3.18831471946753E-27   1.05956775235259E-18   1.82907867795899E-15  -2.76000000000000E+00  -2.76000000000000E+00
      0.00000000000000E+00   0.00000000000000E+00  -8.67733480621002E-19  -1.91834271731582E-19  -1.05956775235258E-18
     -1.82907867795900E-15
      7.00000000000000E-01
      0.00000000000000E+00   0.00000000000000E+00   0.00000000000000E+00   0.00000000000000E+00   1.06668605866016E-18
     -2.45058184762028E-27   1.06668605620958E-18   1.87457831159283E-15  -2.90000000000000E+00  -2.90000000000000E+00
      0.00000000000000E+00   0.00000000000000E+00  -8.70719470808837E-19  -1.95966585400740E-19  -1.06668605620958E-18
     -1.87457831159283E-15
      7.20000000000000E-01
      0.00000000000000E+00   0.00000000000000E+00   0.00000000000000E+00   0.00000000000000E+00   1.07387847426625E-18
      2.73405981560730E-27   1.07387847700031E-18   1.91950988816419E-15  -3.04000000000000E+00  -3.04000000000000E+00
      0.00000000000000E+00   0.00000000000000E+00  -8.73645183799427E-19  -2.00233293200888E-19  -1.07387847700031E-18
     -1.91950988816419E-15
      7.40000000000000E-01
      0.00000000000000E+00   0.00000000000000E+00   0.00000000000000E+00   0.00000000000000E+00   1.08116658558622E-18
      3.01810525937372E-27   1.08116658860432E-18   1.96392206415612E-15  -3.18000000000000E+00  -3.18000000000000E+00
      0.00000000000000E+00   0.00000000000000E+00  -8.76523384483118E-19  -2.04643204121202E-19  -1.08116658860432E-18
     -1.96392206415613E-15
      7.60000000000000E-01
      0.00000000000000E+00   0.00000000000000E+00   0.00000000000000E+00   0.00000000000000E+00   1.08857129585724E-18
      1.08511067361683E-27   1.08857129694235E-18   2.00785201174983E-15  -3.32000000000000E+00  -3.32000000000000E+00
      0.00000000000000E+00   0.00000000000000E+00  -8.79366840645842E-19  -2.09204456296514E-19  -1.08857129694236E-18
     -2.00785201174983E-15
      7.80000000000000E-01
      0.00000000000000E+00   0.00000000000000E+00   0.00000000000000E+00   0.00000000000000E+00   1.09611010984778E-18
     -1.72730687509270E-27   1.09611010812047E-18   2.05132701596280E-15  -3.46000000000000E+00  -3.46000000000000E+00
      0.00000000000000E+00   0.00000000000000E+00  -8.82185545141909E-19  -2.13924562978559E-19  -1.09611010812047E-18
     -2.05132701596280E-15
      8.00000000000000E-01
      0.00000000000000E+00   0.00000000000000E+00   0.00000000000000E+00   0.00000000000000E+00   1.10379574666751E-18
     -5.64643643040714E-28   1.10379574610287E-18   2.09436662286105E-15  -3.60000000000000E+00  -3.60000000000000E+00
      0.00000000000000E+00   0.00000000000000E+00  -8.84984856238832E-19  -2.18810889864032E-19  -1.10379574610286E-18
     -2.09436662286105E-15
      8.20000000000000E-01
      0.00000000000000E+00   0.00000000000000E+00   0.00000000000000E+00   0.00000000000000E+00   1.11163676425608E-18
     -4.33126915955651E-28   1.11163676382296E-18   2.13698476234596E-15  -3.74000000000000E+00  -3.74000000000000E+00
      0.00000000000000E+00   0.00000000000000E+00  -8.87764721083107E-19  -2.23872042739851E-19  -1.11163676382296E-18
     -2.13698476234596E-15
      8.40000000000000E-01
      0.00000000000000E+00   0.00000000000000E+00   0.00000000000000E+00   0.00000000000000E+00   1.11964172926631E-18
     -8.52426077556326E-29   1.11964172918107E-18   2.17919190927017E-15  -3.88000000000000E+00  -3.88000000000000E+00
      0.00000000000000E+00   0.00000000000000E+00  -8.90520120579334E-19  -2.29121608601739E-19  -1.11964172918107E-18
     -2.17919190927016E-15
      8.60000000000000E-01
      0.00000000000000E+00   0.00000000000000E+00   0.00000000000000E+00   0.00000000000000E+00   1.12783021955715E-18
     -6.25069869543650E-28   1.12783021893208E-18   2.22099705768097E-15  -4.02000000000000E+00  -4.02000000000000E+00
      0.00000000000000E+00   0.00000000000000E+00  -8.93242943201244E-19  -2.34587275730834E-19  -1.12783021893208E-18
     -2.22099705768097E-15
      8.80000000000000E-01
      0.00000000000000E+00   0.00000000000000E+00   0.00000000000000E+00   0.00000000000000E+00   1.13625667328088E-18
      3.69669101701442E-28   1.13625667365054E-18   2.26240893945926E-15  -4.16000000000000E+00  -4.16000000000000E+00
      0.00000000000000E+00   0.00000000000000E+00  -8.95924843018186E-19  -2.40331830632361E-19  -1.13625667365055E-18
     -2.26240893945927E-15
      9.00000000000000E-01
      0.00000000000000E+00   0.00000000000000E+00   0.00000000000000E+00   0.00000000000000E+00   1.14505875332334E-18
     -2.49814139056627E-28   1.14505875307352E-18   2.30343636173071E-15  -4.30000000000000E+00  -4.30000000000000E+00
      0.00000000000000E+00   0.00000000000000E+00  -8.98559600619762E-19  -2.46499152453762E-19  -1.14505875307352E-18
     -2.30343636173070E-15
      9.20000000000000E-01
      0.00000000000000E+00   0.00000000000000E+00   0.00000000000000E+00   0.00000000000000E+00   1.15455534027650E-18
      2.09947384973159E-28   1.15455534048645E-18   2.34408835173949E-15  -4.44000000000000E+00  -4.44000000000000E+00
      0.00000000000000E+00   0.00000000000000E+00  -9.01144266206038E-19  -2.53411074280413E-19  -1.15455534048645E-18
     -2.34408835173949E-15
      9.40000000000001E-01
      0.00000000000000E+00   0.00000000000000E+00   0.00000000000000E+00   0.00000000000000E+00   1.16544236200821E-18
     -1.34732011896483E-28   1.16544236187348E-18   2.38437482784530E-15  -4.58000000000000E+00  -4.58000000000000E+00
      0.00000000000000E+00   0.00000000000000E+00  -9.03678384835443E-19  -2.61763977038033E-19  -1.16544236187348E-18
     -2.38437482784530E-15
      9.60000000000001E-01
      0.00000000000000E+00   0.00000000000000E+00   0.00000000000000E+00   0.00000000000000E+00   1.17917811234853E-18
      6.11159655444815E-29   1.17917811240965E-18   2.42430765716725E-15  -4.72000000000000E+00  -4.72000000000000E+00
      0.00000000000000E+00   0.00000000000000E+00  -9.06163259265622E-19  -2.73014853144024E-19  -1.17917811240965E-18
     -2.42430765716725E-15
      9.80000000000001E-01
      0.00000000000000E+00   0.00000000000000E+00   0.00000000000000E+00   0.00000000000000E+00   1.19871824325007E-18
     -1.47904940260582E-28   1.19871824310216E-18   2.46390125833619E-15  -4.86000000000000E+00  -4.86000000000000E+00
      0.00000000000000E+00   0.00000000000000E+00  -9.08601419002784E-19  -2.90116824099375E-19  -1.19871824310216E-18
     -2.46390125833619E-15
      1.00000000000000E+00
      0.00000000000000E+00   0.00000000000000E+00   0.00000000000000E+00   0.00000000000000E+00   1.22987898512860E-18
      3.04816677441604E-29   1.22987898515908E-18   2.50317208759217E-15  -5.00000000000000E+00  -5.00000000000000E+00
      0.00000000000000E+00   0.00000000000000E+00  -9.10996928339751E-19  -3.18882056819327E-19  -1.22987898515908E-18
     -2.50317208759217E-15
      1.00000000000000E-03
      0.00000000000000E+00   0.00000000000000E+00   0.00000000000000E+00   0.00000000000000E+00   1.23132398918998E-18
     -3.31637045484048E-34   1.23132398918998E-18   2.50456886251326E-15  -5.00500000000000E+00  -5.00500000000000E+00
      0.00000000000000E+00   0.00000000000000E+00  -9.11081759803330E-19  -3.20242229386650E-19  -1.23132398918998E-18
     -2.50456886251326E-15
      2.00000000000000E-03
      0.00000000000000E+00   0.00000000000000E+00   0.00000000000000E+00   0.00000000000000E+00   1.23279771278536E-18
     -2.19647930442741E-30   1.23279771278316E-18   2.50596524830252E-15  -5.01000000000000E+00  -5.01000000000000E+00
      0.00000000000000E+00   0.00000000000000E+00  -9.11166546559543E-19  -3.21631166223615E-19  -1.23279771278316E-18
     -2.50596524830253E-15
      3.00000000000000E-03
      0.00000000000000E+00   0.00000000000000E+00   0.00000000000000E+00   0.00000000000000E+00   1.23430084063424E-18
     -2.22513997515917E-30   1.23430084063202E-18   2.50736124571682E-15  -5.01500000000000E+00  -5.01500000000000E+00
      0.00000000000000E+00   0.00000000000000E+00  -9.11251286707766E-19  -3.23049553924242E-19  -1.23430084063201E-18
     -2.50736124571682E-15
      4.00000000000000E-03
      0.00000000000000E+00   0.00000000000000E+00   0.00000000000000E+00   0.00000000000000E+00   1.23583407536983E-18
     -2.25656062054435E-30   1.23583407536758E-18   2.50875685551677E-15  -5.02000000000000E+00  -5.02000000000000E+00
      0.00000000000000E+00   0.00000000000000E+00  -9.11335980728244E-19  -3.24498094639330E-19  -1.23583407536757E-18
     -2.50875685551676E-15
      5.00000000000000E-03
      0.00000000000000E+00   0.00000000000000E+00   0.00000000000000E+00   0.00000000000000E+00   1.23739813532042E-18
     -2.28724726355871E-30   1.23739813531813E-18   2.51015207845849E-15  -5.02500000000000E+00  -5.02500000000000E+00
      0.00000000000000E+00   0.00000000000000E+00  -9.11420628942489E-19  -3.25977506375630E-19  -1.23739813531812E-18
     -2.51015207845849E-15
      6.00000000000000E-03
      0.00000000000000E+00   0.00000000000000E+00   0.00000000000000E+00   0.00000000000000E+00   1.23899375500796E-18
     -2.31826397187900E-30   1.23899375500564E-18   2.51154691529557E-15  -5.03000000000000E+00  -5.03000000000000E+00
      0.00000000000000E+00   0.00000000000000E+00  -9.11505231675417E-19  -3.27488523330236E-19  -1.23899375500565E-18
     -2.51154691529558E-15
      7.00000000000000E-03
      0.00000000000000E+00   0.00000000000000E+00   0.00000000000000E+00   0.00000000000000E+00   1.24062168548799E-18
     -2.34940956284257E-30   1.24062168548564E-18   2.51294136677895E-15  -5.03500000000000E+00  -5.03500000000000E+00
      0.00000000000000E+00   0.00000000000000E+00  -9.11589789253766E-19  -3.29031896231869E-19  -1.24062168548563E-18
     -2.51294136677895E-15
      8.00000000000000E-03
      0.00000000000000E+00   0.00000000000000E+00   0.00000000000000E+00   0.00000000000000E+00   1.24228269469866E-18
     -2.38072490167775E-30   1.24228269469628E-18   2.51433543365684E-15  -5.04000000000000E+00  -5.04000000000000E+00
      0.00000000000000E+00   0.00000000000000E+00  -9.11674302007445E-19  -3.30608392688836E-19  -1.24228269469628E-18
     -2.51433543365684E-15
      9.00000000000000E-03
      0.00000000000000E+00   0.00000000000000E+00   0.00000000000000E+00   0.00000000000000E+00   1.24397756781543E-18
     -2.41478449777083E-30   1.24397756781302E-18   2.51572911667463E-15  -5.04500000000000E+00  -5.04500000000000E+00
      0.00000000000000E+00   0.00000000000000E+00  -9.11758770269241E-19  -3.32218797543782E-19  -1.24397756781302E-18
     -2.51572911667463E-15
      1.00000000000000E-02
      0.00000000000000E+00   0.00000000000000E+00   0.00000000000000E+00   0.00000000000000E+00   1.24570710761174E-18
     -2.44882994820794E-30   1.24570710760929E-18   2.51712241657481E-15  -5.05000000000000E+00  -5.05000000000000E+00
      0.00000000000000E+00   0.00000000000000E+00  -9.11843194373918E-19  -3.33863913235368E-19  -1.24570710760929E-18
     -2.51712241657481E-15
      1.10000000000000E-02
      0.00000000000000E+00   0.00000000000000E+00   0.00000000000000E+00   0.00000000000000E+00   1.24747213482913E-18
     -2.48112448078406E-30   1.24747213482665E-18   2.51851533409689E-15  -5.05500000000000E+00  -5.05500000000000E+00
      0.00000000000000E+00   0.00000000000000E+00  -9.11927574659667E-19  -3.35544560166976E-19  -1.24747213482664E-18
     -2.51851533409690E-15
      1.20000000000000E-02
      0.00000000000000E+00   0.00000000000000E+00   0.00000000000000E+00   0.00000000000000E+00   1.24927348855164E-18
     -2.51596365969496E-30   1.24927348854912E-18   2.51990786997731E-15  -5.06000000000000E+00  -5.06000000000000E+00
      0.00000000000000E+00   0.00000000000000E+00  -9.12011911466523E-19  -3.37261577082596E-19  -1.24927348854912E-18
     -2.51990786997731E-15
      1.30000000000000E-02
      0.00000000000000E+00   0.00000000000000E+00   0.00000000000000E+00   0.00000000000000E+00   1.25111202658984E-18
     -2.55101187996628E-30   1.25111202658729E-18   2.52130002494935E-15  -5.06500000000000E+00  -5.06500000000000E+00
      0.00000000000000E+00   0.00000000000000E+00  -9.12096205137297E-19  -3.39015821449997E-19  -1.25111202658729E-18
     -2.52130002494934E-15
      1.40000000000000E-02
      0.00000000000000E+00   0.00000000000000E+00   0.00000000000000E+00   0.00000000000000E+00   1.25298862587111E-18
     -2.58724990707851E-30   1.25298862586853E-18   2.52269179974304E-15  -5.07000000000000E+00  -5.07000000000000E+00
      0.00000000000000E+00   0.00000000000000E+00  -9.12180456017180E-19  -3.40808169851331E-19  -1.25298862586851E-18
     -2.52269179974304E-15
      1.50000000000000E-02
      0.00000000000000E+00   0.00000000000000E+00   0.00000000000000E+00   0.00000000000000E+00   1.25490418283775E-18
     -2.62384000385039E-30   1.25490418283513E-18   2.52408319508515E-15  -5.07500000000000E+00  -5.07500000000000E+00
      0.00000000000000E+00   0.00000000000000E+00  -9.12264664453852E-19  -3.42639518381288E-19  -1.25490418283514E-18
     -2.52408319508515E-15
      1.60000000000000E-02
      0.00000000000000E+00   0.00000000000000E+00   0.00000000000000E+00   0.00000000000000E+00   1.25685961385284E-18
     -2.65989885265369E-30   1.25685961385018E-18   2.52547421169903E-15  -5.08000000000000E+00  -5.08000000000000E+00
      0.00000000000000E+00   0.00000000000000E+00  -9.12348830797234E-19  -3.44510783052948E-19  -1.25685961385018E-18
     -2.52547421169903E-15
      1.70000000000000E-02
      0.00000000000000E+00   0.00000000000000E+00   0.00000000000000E+00   0.00000000000000E+00   1.25885585561399E-18
     -2.69586811230251E-30   1.25885585561129E-18   2.52686485030458E-15  -5.08500000000000E+00  -5.08500000000000E+00
      0.00000000000000E+00   0.00000000000000E+00  -9.12432955399850E-19  -3.46422900211453E-19  -1.25885585561130E-18
     -2.52686485030458E-15
      1.80000000000000E-02
      0.00000000000000E+00   0.00000000000000E+00   0.00000000000000E+00   0.00000000000000E+00   1.26089386557440E-18
     -2.73607635352324E-30   1.26089386557167E-18   2.52825511161817E-15  -5.09000000000000E+00  -5.09000000000000E+00
      0.00000000000000E+00   0.00000000000000E+00  -9.12517038616008E-19  -3.48376826955653E-19  -1.26089386557166E-18
     -2.52825511161818E-15
      1.90000000000000E-02
      0.00000000000000E+00   0.00000000000000E+00   0.00000000000000E+00   0.00000000000000E+00   1.26297462237338E-18
     -2.77414074199496E-30   1.26297462237060E-18   2.52964499635259E-15  -5.09500000000000E+00  -5.09500000000000E+00
      0.00000000000000E+00   0.00000000000000E+00  -9.12601080802728E-19  -3.50373541567852E-19  -1.26297462237058E-18
     -2.52964499635259E-15
      2.00000000000000E-02
      0.00000000000000E+00   0.00000000000000E+00   0.00000000000000E+00   0.00000000000000E+00   1.26509912627341E-18
     -2.81249118706515E-30   1.26509912627060E-18   2.53103450521694E-15  -5.10000000000000E+00  -5.10000000000000E+00
      0.00000000000000E+00   0.00000000000000E+00  -9.12685082318812E-19  -3.52414043951807E-19  -1.26509912627062E-18
     -2.53103450521694E-15
      2.10000000000000E-02
      0.00000000000000E+00   0.00000000000000E+00   0.00000000000000E+00   0.00000000000000E+00   1.26726839960748E-18