DF-ISE text

Info {
  version   = 1.0
  type      = xyplot
  datasets  = [
    "time"
    "n1contact OuterVoltage" "n1contact InnerVoltage" "n1contact QuasiFermiPotential" "n1contact DisplacementCurrent" "n1contact eCurrent"
    "n1contact hCurrent" "n1contact TotalCurrent" "n1contact Charge" "n2contact OuterVoltage" "n2contact InnerVoltage"
    "n2contact QuasiFermiPotential" "n2contact DisplacementCurrent" "n2contact eCurrent" "n2contact hCurrent" "n2contact TotalCurrent"
    "n2contact Charge" ]
  functions = [
    Time
    OuterVoltage InnerVoltage QuasiFermiPotential DisplacementCurrent eCurrent
    hCurrent TotalCurrent Charge OuterVoltage InnerVoltage
    QuasiFermiPotential DisplacementCurrent eCurrent hCurrent TotalCurrent
    Charge ]
}

Data {
      0.00000000000000E+00
      0.00000000000000E+00   0.00000000000000E+00   0.00000000000000E+00   0.00000000000000E+00   8.85769566795096E-35
     -8.85769566795096E-35   0.00000000000000E+00   5.32247039443697E-32   0.00000000000000E+00   0.00000000000000E+00
      0.00000000000000E+00   0.00000000000000E+00   8.26402726802141E-35  -8.26402726802141E-35   0.00000000000000E+00
     -8.59509698878497E-48
      0.00000000000000E+00
      0.00000000000000E+00   0.00000000000000E+00   0.00000000000000E+00   0.00000000000000E+00   1.57081705676338E-35
      1.17301698011315E-32   1.17458779716992E-32   1.45158283484645E-31   0.00000000000000E+00   0.00000000000000E+00
      0.00000000000000E+00   0.00000000000000E+00   4.17171516929684E-35  -1.17875951233921E-32  -1.17458779716992E-32
     -8.59509698878497E-48
      0.00000000000000E+00
      0.00000000000000E+00   0.00000000000000E+00   0.00000000000000E+00   0.00000000000000E+00   1.62316596657929E-35
      1.17296463120334E-32   1.17458779716992E-32   1.06449407888739E-31   0.00000000000000E+00   0.00000000000000E+00
      0.00000000000000E+00   0.00000000000000E+00   4.19843735650866E-35  -1.17878623452642E-32  -1.17458779716992E-32
     -8.59509698878497E-48
      1.00000000000000E-01
      0.00000000000000E+00   0.00000000000000E+00   0.00000000000000E+00   0.00000000000000E+00  -5.99698484868429E-08
     -6.52152585760856E-20  -5.99698484869081E-08  -2.73642614907570E-20   1.00000000000000E-03   1.00000000000000E-03
      0.00000000000000E+00   0.00000000000000E+00   5.99698484868429E-08   6.50757976766138E-20   5.99698484869080E-08
      2.73642614907258E-20
      2.00000000000000E-01
      0.00000000000000E+00   0.00000000000000E+00   0.00000000000000E+00   0.00000000000000E+00  -1.19240037683667E-07
     -1.29024214705283E-19  -1.19240037683796E-07  -5.44092682184054E-20   2.00000000000000E-03   2.00000000000000E-03
      0.00000000000000E+00   0.00000000000000E+00   1.19240037683667E-07   1.28747339731996E-19   1.19240037683796E-07
      5.44092682184291E-20
      3.00000000000000E-01
      0.00000000000000E+00   0.00000000000000E+00   0.00000000000000E+00   0.00000000000000E+00  -1.77806283619004E-07
     -1.91450319581660E-19  -1.77806283619196E-07  -8.11330654055384E-20   3.00000000000000E-03   3.00000000000000E-03
      0.00000000000000E+00   0.00000000000000E+00   1.77806283619004E-07   1.91038053446759E-19   1.77806283619195E-07
      8.11330654055605E-20
      4.00000000000000E-01
      0.00000000000000E+00   0.00000000000000E+00   0.00000000000000E+00   0.00000000000000E+00  -2.35664462485362E-07
     -2.52516719477567E-19  -2.35664462485615E-07  -1.07533771357406E-19   4.00000000000000E-03   4.00000000000000E-03
      0.00000000000000E+00   0.00000000000000E+00   2.35664462485362E-07   2.51971060755069E-19   2.35664462485614E-07
      1.07533771357388E-19
      5.00000000000000E-01
      0.00000000000000E+00   0.00000000000000E+00   0.00000000000000E+00   0.00000000000000E+00  -2.92810627566263E-07
     -3.12246261149488E-19  -2.92810627566575E-07  -1.33609585185857E-19   5.00000000000000E-03   5.00000000000000E-03
      0.00000000000000E+00   0.00000000000000E+00   2.92810627566263E-07   3.11569183641114E-19   2.92810627566575E-07
      1.33609585185884E-19
      6.00000000000000E-01
      0.00000000000000E+00   0.00000000000000E+00   0.00000000000000E+00   0.00000000000000E+00  -3.49241016265801E-07
     -3.70661494625481E-19  -3.49241016266172E-07  -1.59358790017236E-19   6.00000000000000E-03   6.00000000000000E-03
      0.00000000000000E+00   0.00000000000000E+00   3.49241016265802E-07   3.69854946927371E-19   3.49241016266172E-07
      1.59358790017312E-19
      7.00000000000000E-01
      0.00000000000000E+00   0.00000000000000E+00   0.00000000000000E+00   0.00000000000000E+00  -4.04952058784270E-07
     -4.27784676667462E-19  -4.04952058784698E-07  -1.84779756950849E-19   7.00000000000000E-03   7.00000000000000E-03
      0.00000000000000E+00   0.00000000000000E+00   4.04952058784270E-07   4.26850581735961E-19   4.04952058784697E-07
      1.84779756950896E-19
      8.00000000000000E-01
      0.00000000000000E+00   0.00000000000000E+00   0.00000000000000E+00   0.00000000000000E+00  -4.59940386761673E-07
     -4.83637774419984E-19  -4.59940386762157E-07  -2.09870949002889E-19   8.00000000000000E-03   8.00000000000000E-03
      0.00000000000000E+00   0.00000000000000E+00   4.59940386761673E-07   4.82578029136489E-19   4.59940386762156E-07
      2.09870949002882E-19
      9.00000000000000E-01
      0.00000000000000E+00   0.00000000000000E+00   0.00000000000000E+00   0.00000000000000E+00  -5.14202841866925E-07
     -5.38242469232119E-19  -5.14202841867464E-07  -2.34630925025776E-19   9.00000000000000E-03   9.00000000000000E-03
      0.00000000000000E+00   0.00000000000000E+00   5.14202841866926E-07   5.37058943966989E-19   5.14202841867463E-07
      2.34630925025751E-19
      1.00000000000000E+00
      0.00000000000000E+00   0.00000000000000E+00   0.00000000000000E+00   0.00000000000000E+00  -5.67736484301793E-07
     -5.91620160634645E-19  -5.67736484302384E-07  -2.59058343588702E-19   1.00000000000000E-02   1.00000000000000E-02
      0.00000000000000E+00   0.00000000000000E+00   5.67736484301793E-07   5.90314698810180E-19   5.67736484302384E-07
      2.59058343588611E-19
      0.00000000000000E+00
      0.00000000000000E+00   0.00000000000000E+00   0.00000000000000E+00   0.00000000000000E+00  -5.67736484301793E-07
     -5.91620160634645E-19  -5.67736484302384E-07  -2.59058343588586E-19   1.00000000000000E-02   1.00000000000000E-02
      0.00000000000000E+00   0.00000000000000E+00   5.67736484301793E-07   5.90314698810180E-19   5.67736484302384E-07
      2.59058343588611E-19
      1.00000000000000E-01
      0.00000000000000E+00   0.00000000000000E+00   0.00000000000000E+00   0.00000000000000E+00  -1.01637630005871E-06
     -1.02020112713510E-18  -1.01637630005973E-06  -4.63772838343768E-19   1.90000000000000E-02   1.90000000000000E-02
      0.00000000000000E+00   0.00000000000000E+00   1.01637630005871E-06   1.01787652651834E-18   1.01637630005973E-06
      4.63772838343747E-19
      2.00000000000000E-01
      0.00000000000000E+00   0.00000000000000E+00   0.00000000000000E+00   0.00000000000000E+00  -1.40487639906634E-06
     -1.36542414560389E-18  -1.40487639906770E-06  -6.41045560664427E-19   2.80000000000000E-02   2.80000000000000E-02
      0.00000000000000E+00   0.00000000000000E+00   1.40487639906634E-06   1.36220569903956E-18   1.40487639906770E-06
      6.41045560664435E-19
      3.00000000000000E-01
      0.00000000000000E+00   0.00000000000000E+00   0.00000000000000E+00   0.00000000000000E+00  -1.73413617782498E-06
     -1.64022193034023E-18  -1.73413617782662E-06  -7.91286905468086E-19   3.70000000000000E-02   3.70000000000000E-02
      0.00000000000000E+00   0.00000000000000E+00   1.73413617782498E-06   1.63621049584310E-18   1.73413617782662E-06
      7.91286905468094E-19
      4.00000000000000E-01
      0.00000000000000E+00   0.00000000000000E+00   0.00000000000000E+00   0.00000000000000E+00  -2.00711490867428E-06
     -1.85621715283946E-18  -2.00711490867614E-06  -9.15847189691744E-19   4.60000000000000E-02   4.60000000000000E-02
      0.00000000000000E+00   0.00000000000000E+00   2.00711490867428E-06   1.85148642119818E-18   2.00711490867613E-06
      9.15847189691739E-19
      5.00000000000000E-01
      0.00000000000000E+00   0.00000000000000E+00   0.00000000000000E+00   0.00000000000000E+00  -2.22864931870800E-06
     -2.02385631061729E-18  -2.22864931871002E-06  -1.01693341349118E-18   5.50000000000000E-02   5.50000000000000E-02
      0.00000000000000E+00   0.00000000000000E+00   2.22864931870800E-06   2.01845036956208E-18   2.22864931871002E-06
      1.01693341349118E-18
      6.00000000000000E-01
      0.00000000000000E+00   0.00000000000000E+00   0.00000000000000E+00   0.00000000000000E+00  -2.40495600022915E-06
     -2.15244119815751E-18  -2.40495600023131E-06  -1.09738220996879E-18   6.40000000000000E-02   6.40000000000000E-02
      0.00000000000000E+00   0.00000000000000E+00   2.40495600022916E-06   2.14637250783134E-18   2.40495600023130E-06
      1.09738220996878E-18
      7.00000000000000E-01
      0.00000000000000E+00   0.00000000000000E+00   0.00000000000000E+00   0.00000000000000E+00  -2.54294820533794E-06
     -2.25009563131771E-18  -2.54294820534019E-06  -1.16034809832029E-18   7.30000000000000E-02   7.30000000000000E-02
      0.00000000000000E+00   0.00000000000000E+00   2.54294820533794E-06   2.24334341485062E-18   2.54294820534019E-06
      1.16034809832030E-18
      8.00000000000000E-01
      0.00000000000000E+00   0.00000000000000E+00   0.00000000000000E+00   0.00000000000000E+00  -2.64955069969062E-06
     -2.32372945034731E-18  -2.64955069969295E-06  -1.20899085138097E-18   8.20000000000000E-02   8.20000000000000E-02
      0.00000000000000E+00   0.00000000000000E+00   2.64955069969063E-06   2.31623840828783E-18   2.64955069969295E-06
      1.20899085138099E-18
      9.00000000000000E-01
      0.00000000000000E+00   0.00000000000000E+00   0.00000000000000E+00   0.00000000000000E+00  -2.73116371814805E-06
     -2.37904994331326E-18  -2.73116371815043E-06  -1.24623089841250E-18   9.10000000000000E-02   9.10000000000000E-02
      0.00000000000000E+00   0.00000000000000E+00   2.73116371814806E-06   2.37072920647565E-18   2.73116371815043E-06
      1.24623089841241E-18
      1.00000000000000E+00
      0.00000000000000E+00   0.00000000000000E+00   0.00000000000000E+00   0.00000000000000E+00  -2.79334279961015E-06
     -2.42063839641557E-18  -2.79334279961257E-06  -1.27460323363269E-18   1.00000000000000E-01   1.00000000000000E-01
      0.00000000000000E+00   0.00000000000000E+00   2.79334279961016E-06   2.41136077210438E-18   2.79334279961257E-06
      1.27460323363277E-18
      0.00000000000000E+00
      0.00000000000000E+00   0.00000000000000E+00   0.00000000000000E+00   0.00000000000000E+00  -2.79334279960057E-06
     -2.42063839640913E-18  -2.79334279960299E-06  -1.27460323362845E-18   1.00000000000000E-01   1.00000000000000E-01
      0.00000000000000E+00   0.00000000000000E+00   2.79334279960058E-06   2.41136077209804E-18   2.79334279960299E-06
      1.27460323362840E-18
      2.00000000000000E-02
      0.00000000000000E+00   0.00000000000000E+00   0.00000000000000E+00   0.00000000000000E+00  -2.87683746765408E-06
     -2.47612101872817E-18  -2.87683746765655E-06  -1.31270187798634E-18   1.18000000000000E-01   1.18000000000000E-01
      0.00000000000000E+00   0.00000000000000E+00   2.87683746765409E-06   2.46440311526961E-18   2.87683746765655E-06
      1.31270187798632E-18
      4.00000000000000E-02
      0.00000000000000E+00   0.00000000000000E+00   0.00000000000000E+00   0.00000000000000E+00  -2.92625674357506E-06
     -2.50973848873417E-18  -2.92625674357756E-06  -1.33525190976236E-18   1.36000000000000E-01   1.36000000000000E-01
      0.00000000000000E+00   0.00000000000000E+00   2.92625674357507E-06   2.49465945736662E-18   2.92625674357756E-06
      1.33525190976240E-18
      6.00000000000000E-02
      0.00000000000000E+00   0.00000000000000E+00   0.00000000000000E+00   0.00000000000000E+00  -2.95689802870240E-06
     -2.53233795367315E-18  -2.95689802870493E-06  -1.34923353819396E-18   1.54000000000000E-01   1.54000000000000E-01
      0.00000000000000E+00   0.00000000000000E+00   2.95689802870241E-06   2.51280640861984E-18   2.95689802870493E-06
      1.34923353819389E-18
      8.00000000000000E-02
      0.00000000000000E+00   0.00000000000000E+00   0.00000000000000E+00   0.00000000000000E+00  -2.97719813376569E-06
     -2.54958379750323E-18  -2.97719813376824E-06  -1.35849648277785E-18   1.72000000000000E-01   1.72000000000000E-01
      0.00000000000000E+00   0.00000000000000E+00   2.97719813376571E-06   2.52453054869857E-18   2.97719813376824E-06
      1.35849648277785E-18
      1.00000000000000E-01
      0.00000000000000E+00   0.00000000000000E+00   0.00000000000000E+00   0.00000000000000E+00  -2.99169127149103E-06
     -2.56419935702241E-18  -2.99169127149360E-06  -1.36510970626507E-18   1.90000000000000E-01   1.90000000000000E-01
      0.00000000000000E+00   0.00000000000000E+00   2.99169127149106E-06   2.53280374067324E-18   2.99169127149360E-06
      1.36510970626507E-18
      1.20000000000000E-01
      0.00000000000000E+00   0.00000000000000E+00   0.00000000000000E+00   0.00000000000000E+00  -3.00279900826603E-06
     -2.57735868923884E-18  -3.00279900826860E-06  -1.37017817019077E-18   2.08000000000000E-01   2.08000000000000E-01
      0.00000000000000E+00   0.00000000000000E+00   3.00279900826606E-06   2.53916984035362E-18   3.00279900826860E-06
      1.37017817019069E-18
      1.40000000000000E-01
      0.00000000000000E+00   0.00000000000000E+00   0.00000000000000E+00   0.00000000000000E+00  -3.01182508232878E-06
     -2.58956511822601E-18  -3.01182508233137E-06  -1.37429677073960E-18   2.26000000000000E-01   2.26000000000000E-01
      0.00000000000000E+00   0.00000000000000E+00   3.01182508232882E-06   2.54443386551942E-18   3.01182508233136E-06
      1.37429677073947E-18
      1.60000000000000E-01
      0.00000000000000E+00   0.00000000000000E+00   0.00000000000000E+00   0.00000000000000E+00  -3.01948605612509E-06
     -2.60112854403591E-18  -3.01948605612770E-06  -1.37779247558986E-18   2.44000000000000E-01   2.44000000000000E-01
      0.00000000000000E+00   0.00000000000000E+00   3.01948605612514E-06   2.54902095221711E-18   3.01948605612769E-06
      1.37779247558991E-18
      1.80000000000000E-01
      0.00000000000000E+00   0.00000000000000E+00   0.00000000000000E+00   0.00000000000000E+00  -3.02618904977893E-06
     -2.61231950165343E-18  -3.02618904978154E-06  -1.38085105378785E-18   2.62000000000000E-01   2.62000000000000E-01
      0.00000000000000E+00   0.00000000000000E+00   3.02618904977899E-06   2.55316078434134E-18   3.02618904978154E-06
      1.38085105378784E-18
      2.00000000000000E-01
      0.00000000000000E+00   0.00000000000000E+00   0.00000000000000E+00   0.00000000000000E+00  -3.03217612720573E-06
     -2.62334659838380E-18  -3.03217612720836E-06  -1.38358295917714E-18   2.80000000000000E-01   2.80000000000000E-01
      0.00000000000000E+00   0.00000000000000E+00   3.03217612720580E-06   2.55698182598454E-18   3.03217612720835E-06
      1.38358295917707E-18
      2.20000000000000E-01
      0.00000000000000E+00   0.00000000000000E+00   0.00000000000000E+00   0.00000000000000E+00  -3.03759944951997E-06
     -2.63430536964004E-18  -3.03759944952260E-06  -1.38605762292386E-18   2.98000000000000E-01   2.98000000000000E-01
      0.00000000000000E+00   0.00000000000000E+00   3.03759944952004E-06   2.56055945001598E-18   3.03759944952260E-06
      1.38605762292393E-18
      2.40000000000000E-01
      0.00000000000000E+00   0.00000000000000E+00   0.00000000000000E+00   0.00000000000000E+00  -3.04256068931429E-06
     -2.64517939544086E-18  -3.04256068931694E-06  -1.38832143826588E-18   3.16000000000000E-01   3.16000000000000E-01
      0.00000000000000E+00   0.00000000000000E+00   3.04256068931437E-06   2.56394061067038E-18   3.04256068931694E-06
      1.38832143826574E-18
      2.60000000000000E-01
      0.00000000000000E+00   0.00000000000000E+00   0.00000000000000E+00   0.00000000000000E+00  -3.04713198885981E-06
     -2.65589944591372E-18  -3.04713198886247E-06  -1.39040732374433E-18   3.34000000000000E-01   3.34000000000000E-01
      0.00000000000000E+00   0.00000000000000E+00   3.04713198885990E-06   2.56715659118697E-18   3.04713198886247E-06
      1.39040732374442E-18
      2.80000000000000E-01
      0.00000000000000E+00   0.00000000000000E+00   0.00000000000000E+00   0.00000000000000E+00  -3.05136733842203E-06
     -2.66641724847724E-18  -3.05136733842469E-06  -1.39233991513568E-18   3.52000000000000E-01   3.52000000000000E-01
      0.00000000000000E+00   0.00000000000000E+00   3.05136733842212E-06   2.57022967437063E-18   3.05136733842469E-06
      1.39233991513574E-18
      3.00000000000000E-01
      0.00000000000000E+00   0.00000000000000E+00   0.00000000000000E+00   0.00000000000000E+00  -3.05530893422693E-06
     -2.67674594642681E-18  -3.05530893422960E-06  -1.39413846659145E-18   3.70000000000000E-01   3.70000000000000E-01
      0.00000000000000E+00   0.00000000000000E+00   3.05530893422702E-06   2.57317669964942E-18   3.05530893422960E-06
      1.39413846659149E-18
      3.20000000000000E-01
      0.00000000000000E+00   0.00000000000000E+00   0.00000000000000E+00   0.00000000000000E+00  -3.05899086735491E-06
     -2.68695158010386E-18  -3.05899086735760E-06  -1.39581853388277E-18   3.88000000000000E-01   3.88000000000000E-01
      0.00000000000000E+00   0.00000000000000E+00   3.05899086735502E-06   2.57601101128753E-18   3.05899086735759E-06
      1.39581853388277E-18
      3.40000000000000E-01
      0.00000000000000E+00   0.00000000000000E+00   0.00000000000000E+00   0.00000000000000E+00  -3.06244136466577E-06
     -2.69711365691654E-18  -3.06244136466847E-06  -1.39739299693489E-18   4.06000000000000E-01   4.06000000000000E-01
      0.00000000000000E+00   0.00000000000000E+00   3.06244136466589E-06   2.57874356494687E-18   3.06244136466846E-06
      1.39739299693494E-18
      3.60000000000000E-01
      0.00000000000000E+00   0.00000000000000E+00   0.00000000000000E+00   0.00000000000000E+00  -3.06568422230006E-06
     -2.70728418892214E-18  -3.06568422230277E-06  -1.39887271393471E-18   4.24000000000000E-01   4.24000000000000E-01
      0.00000000000000E+00   0.00000000000000E+00   3.06568422230019E-06   2.58138358629340E-18   3.06568422230277E-06
      1.39887271393477E-18
      3.80000000000000E-01
      0.00000000000000E+00   0.00000000000000E+00   0.00000000000000E+00   0.00000000000000E+00  -3.06873977235990E-06
     -2.71746705242894E-18  -3.06873977236261E-06  -1.40026696242720E-18   4.42000000000000E-01   4.42000000000000E-01
      0.00000000000000E+00   0.00000000000000E+00   3.06873977236003E-06   2.58393898537139E-18   3.06873977236261E-06
      1.40026696242705E-18
      4.00000000000000E-01
      0.00000000000000E+00   0.00000000000000E+00   0.00000000000000E+00   0.00000000000000E+00  -3.07162556732628E-06
     -2.72762485056377E-18  -3.07162556732901E-06  -1.40158375161478E-18   4.60000000000000E-01   4.60000000000000E-01
      0.00000000000000E+00   0.00000000000000E+00   3.07162556732642E-06   2.58641663324207E-18   3.07162556732901E-06
      1.40158375161464E-18
      4.20000000000000E-01
      0.00000000000000E+00   0.00000000000000E+00   0.00000000000000E+00   0.00000000000000E+00  -3.07435688497886E-06
     -2.73770573506797E-18  -3.07435688498160E-06  -1.40283005275329E-18   4.78000000000000E-01   4.78000000000000E-01
      0.00000000000000E+00   0.00000000000000E+00   3.07435688497901E-06   2.58882255730134E-18   3.07435688498160E-06
      1.40283005275339E-18
      4.40000000000000E-01
      0.00000000000000E+00   0.00000000000000E+00   0.00000000000000E+00   0.00000000000000E+00  -3.07694711325147E-06
     -2.74767351188077E-18  -3.07694711325421E-06  -1.40401197476180E-18   4.96000000000000E-01   4.96000000000000E-01
      0.00000000000000E+00   0.00000000000000E+00   3.07694711325162E-06   2.59116208577070E-18   3.07694711325421E-06
      1.40401197476189E-18
      4.60000000000000E-01
      0.00000000000000E+00   0.00000000000000E+00   0.00000000000000E+00   0.00000000000000E+00  -3.07940805114346E-06
     -2.75752538552810E-18  -3.07940805114622E-06  -1.40513490152747E-18   5.14000000000000E-01   5.14000000000000E-01
      0.00000000000000E+00   0.00000000000000E+00   3.07940805114362E-06   2.59343995844185E-18   3.07940805114621E-06
      1.40513490152740E-18
      4.80000000000000E-01
      0.00000000000000E+00   0.00000000000000E+00   0.00000000000000E+00   0.00000000000000E+00  -3.08175014881266E-06
     -2.76729111058895E-18  -3.08175014881543E-06  -1.40620360146028E-18   5.32000000000000E-01   5.32000000000000E-01
      0.00000000000000E+00   0.00000000000000E+00   3.08175014881283E-06   2.59566041379230E-18   3.08175014881542E-06
      1.40620360146035E-18
      5.00000000000000E-01
      0.00000000000000E+00   0.00000000000000E+00   0.00000000000000E+00   0.00000000000000E+00  -3.08398270239098E-06
     -2.77701760640435E-18  -3.08398270239376E-06  -1.40722231638883E-18   5.50000000000000E-01   5.50000000000000E-01
      0.00000000000000E+00   0.00000000000000E+00   3.08398270239116E-06   2.59782725892049E-18   3.08398270239376E-06
      1.40722231638879E-18
      5.20000000000000E-01
      0.00000000000000E+00   0.00000000000000E+00   0.00000000000000E+00   0.00000000000000E+00  -3.08611401432469E-06
     -2.78674835879512E-18  -3.08611401432748E-06  -1.40819483472183E-18   5.68000000000000E-01   5.68000000000000E-01
      0.00000000000000E+00   0.00000000000000E+00   3.08611401432488E-06   2.59994392670252E-18   3.08611401432748E-06
      1.40819483472166E-18
      5.40000000000000E-01
      0.00000000000000E+00   0.00000000000000E+00   0.00000000000000E+00   0.00000000000000E+00  -3.08815152686463E-06
     -2.79650676313661E-18  -3.08815152686743E-06  -1.40912455236045E-18   5.86000000000000E-01   5.86000000000000E-01
      0.00000000000000E+00   0.00000000000000E+00   3.08815152686483E-06   2.60201352329516E-18   3.08815152686743E-06
      1.40912455236045E-18
      5.60000000000000E-01
      0.00000000000000E+00   0.00000000000000E+00   0.00000000000000E+00   0.00000000000000E+00  -3.09010193422033E-06
     -2.80628933046504E-18  -3.09010193422314E-06  -1.41001452387523E-18   6.04000000000000E-01   6.04000000000000E-01
      0.00000000000000E+00   0.00000000000000E+00   3.09010193422053E-06   2.60403886823939E-18   3.09010193422313E-06
      1.41001452387518E-18
      5.80000000000000E-01
      0.00000000000000E+00   0.00000000000000E+00   0.00000000000000E+00   0.00000000000000E+00  -3.09197127738225E-06
     -2.81607024209884E-18  -3.09197127738507E-06  -1.41086750577181E-18   6.22000000000000E-01   6.22000000000000E-01
      0.00000000000000E+00   0.00000000000000E+00   3.09197127738246E-06   2.60602252874105E-18   3.09197127738506E-06
      1.41086750577173E-18
      6.00000000000000E-01
      0.00000000000000E+00   0.00000000000000E+00   0.00000000000000E+00   0.00000000000000E+00  -3.09376502464549E-06
     -2.82581425426497E-18  -3.09376502464832E-06  -1.41168599323498E-18   6.40000000000000E-01   6.40000000000000E-01
      0.00000000000000E+00   0.00000000000000E+00   3.09376502464571E-06   2.60796684921069E-18   3.09376502464831E-06
      1.41168599323498E-18
      6.20000000000000E-01
      0.00000000000000E+00   0.00000000000000E+00   0.00000000000000E+00   0.00000000000000E+00  -3.09548814021167E-06
     -2.83549189710867E-18  -3.09548814021451E-06  -1.41247225143179E-18   6.58000000000000E-01   6.58000000000000E-01
      0.00000000000000E+00   0.00000000000000E+00   3.09548814021190E-06   2.60987397679225E-18   3.09548814021451E-06
      1.41247225143176E-18
      6.40000000000000E-01
      0.00000000000000E+00   0.00000000000000E+00   0.00000000000000E+00   0.00000000000000E+00  -3.09714514280245E-06
     -2.84509069005839E-18  -3.09714514280530E-06  -1.41322834225628E-18   6.76000000000000E-01   6.76000000000000E-01
      0.00000000000000E+00   0.00000000000000E+00   3.09714514280268E-06   2.61174588340002E-18   3.09714514280530E-06
      1.41322834225623E-18
      6.60000000000000E-01
      0.00000000000000E+00   0.00000000000000E+00   0.00000000000000E+00   0.00000000000000E+00  -3.09874015594600E-06
     -2.85461866428312E-18  -3.09874015594885E-06  -1.41395614727566E-18   6.94000000000000E-01   6.94000000000000E-01
      0.00000000000000E+00   0.00000000000000E+00   3.09874015594623E-06   2.61358438469481E-18   3.09874015594885E-06
      1.41395614727563E-18
      6.80000000000000E-01
      0.00000000000000E+00   0.00000000000000E+00   0.00000000000000E+00   0.00000000000000E+00  -3.10027695132186E-06
     -2.86410012862465E-18  -3.10027695132472E-06  -1.41465738750881E-18   7.12000000000000E-01   7.12000000000000E-01
      0.00000000000000E+00   0.00000000000000E+00   3.10027695132211E-06   2.61539115639565E-18   3.10027695132472E-06
      1.41465738750859E-18
      7.00000000000000E-01
      0.00000000000000E+00   0.00000000000000E+00   0.00000000000000E+00   0.00000000000000E+00  -3.10175898633735E-06
     -2.87356638408025E-18  -3.10175898634023E-06  -1.41533364057121E-18   7.30000000000000E-01   7.30000000000000E-01
      0.00000000000000E+00   0.00000000000000E+00   3.10175898633761E-06   2.61716774832499E-18   3.10175898634022E-06
      1.41533364057118E-18
      7.20000000000000E-01
      0.00000000000000E+00   0.00000000000000E+00   0.00000000000000E+00   0.00000000000000E+00  -3.10318943691267E-06
     -2.88304515773654E-18  -3.10318943691555E-06  -1.41598635563651E-18   7.48000000000000E-01   7.48000000000000E-01
      0.00000000000000E+00   0.00000000000000E+00   3.10318943691293E-06   2.61891559658210E-18   3.10318943691555E-06
      1.41598635563686E-18
      7.40000000000000E-01
      0.00000000000000E+00   0.00000000000000E+00   0.00000000000000E+00   0.00000000000000E+00  -3.10457122624322E-06
     -2.89255219619151E-18  -3.10457122624611E-06  -1.41661686656088E-18   7.66000000000000E-01   7.66000000000000E-01
      0.00000000000000E+00   0.00000000000000E+00   3.10457122624349E-06   2.62063603420629E-18   3.10457122624611E-06
      1.41661686656060E-18
      7.60000000000000E-01
      0.00000000000000E+00   0.00000000000000E+00   0.00000000000000E+00   0.00000000000000E+00  -3.10590705013342E-06
     -2.90208734210445E-18  -3.10590705013632E-06  -1.41722640343900E-18   7.84000000000000E-01   7.84000000000000E-01
      0.00000000000000E+00   0.00000000000000E+00   3.10590705013369E-06   2.62233030063582E-18   3.10590705013631E-06
      1.41722640343886E-18
      7.80000000000000E-01
      0.00000000000000E+00   0.00000000000000E+00   0.00000000000000E+00   0.00000000000000E+00  -3.10719939937485E-06
     -2.91163590314533E-18  -3.10719939937776E-06  -1.41781610282095E-18   8.02000000000000E-01   8.02000000000000E-01
      0.00000000000000E+00   0.00000000000000E+00   3.10719939937514E-06   2.62399955019713E-18   3.10719939937776E-06
      1.41781610282067E-18
      8.00000000000000E-01
      0.00000000000000E+00   0.00000000000000E+00   0.00000000000000E+00   0.00000000000000E+00  -3.10845057954436E-06
     -2.92117447611972E-18  -3.10845057954728E-06  -1.41838701674135E-18   8.20000000000000E-01   8.20000000000000E-01
      0.00000000000000E+00   0.00000000000000E+00   3.10845057954465E-06   2.62564485978309E-18   3.10845057954728E-06
      1.41838701674150E-18
      8.20000000000000E-01
      0.00000000000000E+00   0.00000000000000E+00   0.00000000000000E+00   0.00000000000000E+00  -3.10966272850578E-06
     -2.93067902618239E-18  -3.10966272850871E-06  -1.41894012070913E-18   8.38000000000000E-01   8.38000000000000E-01
      0.00000000000000E+00   0.00000000000000E+00   3.10966272850608E-06   2.62726723580158E-18   3.10966272850871E-06
      1.41894012070930E-18
      8.40000000000000E-01
      0.00000000000000E+00   0.00000000000000E+00   0.00000000000000E+00   0.00000000000000E+00  -3.11083783190813E-06
     -2.94013245311921E-18  -3.11083783191107E-06  -1.41947632077641E-18   8.56000000000000E-01   8.56000000000000E-01
      0.00000000000000E+00   0.00000000000000E+00   3.11083783190844E-06   2.62886762044498E-18   3.11083783191106E-06
      1.41947632077639E-18
      8.60000000000000E-01
      0.00000000000000E+00   0.00000000000000E+00   0.00000000000000E+00   0.00000000000000E+00  -3.11197773690112E-06
     -2.94952934270523E-18  -3.11197773690407E-06  -1.41999645979784E-18   8.74000000000000E-01   8.74000000000000E-01
      0.00000000000000E+00   0.00000000000000E+00   3.11197773690144E-06   2.63044689729652E-18   3.11197773690407E-06
      1.41999645979774E-18
      8.80000000000000E-01
      0.00000000000000E+00   0.00000000000000E+00   0.00000000000000E+00   0.00000000000000E+00  -3.11308416431098E-06
     -2.95887682193607E-18  -3.11308416431394E-06  -1.42050132298719E-18   8.92000000000000E-01   8.92000000000000E-01
      0.00000000000000E+00   0.00000000000000E+00   3.11308416431130E-06   2.63200589630378E-18   3.11308416431393E-06
      1.42050132298696E-18
      9.00000000000000E-01
      0.00000000000000E+00   0.00000000000000E+00   0.00000000000000E+00   0.00000000000000E+00  -3.11415871948384E-06
     -2.96819179473614E-18  -3.11415871948681E-06  -1.42099164286421E-18   9.10000000000000E-01   9.10000000000000E-01
      0.00000000000000E+00   0.00000000000000E+00   3.11415871948417E-06   2.63354539815996E-18   3.11415871948680E-06
      1.42099164286402E-18
      9.20000000000000E-01
      0.00000000000000E+00   0.00000000000000E+00   0.00000000000000E+00   0.00000000000000E+00  -3.11520290199265E-06
     -2.97749579825412E-18  -3.11520290199563E-06  -1.42146810368450E-18   9.28000000000000E-01   9.28000000000000E-01
      0.00000000000000E+00   0.00000000000000E+00   3.11520290199299E-06   2.63506613815797E-18   3.11520290199563E-06
      1.42146810368452E-18
      9.40000000000001E-01