DF-ISE text

Info {
  version   = 1.0
  type      = xyplot
  datasets  = [
    "time"
    "n1contact OuterVoltage" "n1contact InnerVoltage" "n1contact QuasiFermiPotential" "n1contact DisplacementCurrent" "n1contact eCurrent"
    "n1contact hCurrent" "n1contact TotalCurrent" "n1contact Charge" "n2contact OuterVoltage" "n2contact InnerVoltage"
    "n2contact QuasiFermiPotential" "n2contact DisplacementCurrent" "n2contact eCurrent" "n2contact hCurrent" "n2contact TotalCurrent"
    "n2contact Charge" ]
  functions = [
    Time
    OuterVoltage InnerVoltage QuasiFermiPotential DisplacementCurrent eCurrent
    hCurrent TotalCurrent Charge OuterVoltage InnerVoltage
    QuasiFermiPotential DisplacementCurrent eCurrent hCurrent TotalCurrent
    Charge ]
}

Data {
      0.00000000000000E+00
      0.00000000000000E+00   0.00000000000000E+00   0.00000000000000E+00   0.00000000000000E+00   4.41932046461036E-26
      8.70009341604928E-27   5.28932980621528E-26  -7.49842869654683E-15   0.00000000000000E+00   0.00000000000000E+00
      0.00000000000000E+00   0.00000000000000E+00  -4.41932042613423E-26  -8.70009380081096E-27  -5.28932980621532E-26
      7.49842869654688E-15
      0.00000000000000E+00
      0.00000000000000E+00   0.00000000000000E+00   0.00000000000000E+00   0.00000000000000E+00  -4.42535753081655E-26
     -1.35312538998658E-26  -5.77848292080313E-26  -7.49842824322386E-15   0.00000000000000E+00   0.00000000000000E+00
      0.00000000000000E+00   0.00000000000000E+00   4.42535859364659E-26   1.35312432715647E-26   5.77848292080306E-26
      7.49842824322371E-15
      0.00000000000000E+00
      0.00000000000000E+00   0.00000000000000E+00   0.00000000000000E+00   0.00000000000000E+00   2.63831016976037E-26
      7.55745442713089E-27   3.39405561247346E-26  -7.49842824322366E-15   0.00000000000000E+00   0.00000000000000E+00
      0.00000000000000E+00   0.00000000000000E+00  -2.63831013921419E-26  -7.55745473259182E-27  -3.39405561247337E-26
      7.49842824322350E-15
      1.00000000000000E-01
      0.00000000000000E+00   0.00000000000000E+00   0.00000000000000E+00   0.00000000000000E+00  -9.63387497363461E-21
     -6.81024992492353E-21  -1.64441248985581E-20  -7.50285537653932E-15   1.00000000000000E-03   1.00000000000000E-03
      0.00000000000000E+00   0.00000000000000E+00   1.32331326024309E-20   3.21099229612714E-21   1.64441248985581E-20
      7.50285537653930E-15
      2.00000000000000E-01
      0.00000000000000E+00   0.00000000000000E+00   0.00000000000000E+00   0.00000000000000E+00  -1.89023956101551E-20
     -1.34749985968538E-20  -3.23773942070089E-20  -7.50728016150032E-15   2.00000000000000E-03   2.00000000000000E-03
      0.00000000000000E+00   0.00000000000000E+00   2.60771807241526E-20   6.30021348285672E-21   3.23773942070094E-20
      7.50728016150027E-15
      3.00000000000000E-01
      0.00000000000000E+00   0.00000000000000E+00   0.00000000000000E+00   0.00000000000000E+00  -2.78192424848990E-20
     -2.00002349437983E-20  -4.78194774286973E-20  -7.51170260159319E-15   3.00000000000000E-03   3.00000000000000E-03
      0.00000000000000E+00   0.00000000000000E+00   3.85472571260722E-20   9.27222030262502E-21   4.78194774286972E-20
      7.51170260159315E-15
      4.00000000000000E-01
      0.00000000000000E+00   0.00000000000000E+00   0.00000000000000E+00   0.00000000000000E+00  -3.63980002926927E-20
     -2.63919005662449E-20  -6.27899008589377E-20  -7.51612270025611E-15   4.00000000000000E-03   4.00000000000000E-03
      0.00000000000000E+00   0.00000000000000E+00   5.06583598411226E-20   1.21315410178164E-20   6.27899008589389E-20
      7.51612270025598E-15
      5.00000000000000E-01
      0.00000000000000E+00   0.00000000000000E+00   0.00000000000000E+00   0.00000000000000E+00  -4.46513204732479E-20
     -3.26556071530075E-20  -7.73069276262553E-20  -7.52054046089752E-15   5.00000000000000E-03   5.00000000000000E-03
      0.00000000000000E+00   0.00000000000000E+00   6.24245354144225E-20   1.48823922118317E-20   7.73069276262541E-20
      7.52054046089745E-15
      6.00000000000000E-01
      0.00000000000000E+00   0.00000000000000E+00   0.00000000000000E+00   0.00000000000000E+00  -5.25916663429033E-20
     -3.87968882279061E-20  -9.13885545708094E-20  -7.52495588688426E-15   6.00000000000000E-03   6.00000000000000E-03
      0.00000000000000E+00   0.00000000000000E+00   7.38596246348822E-20   1.75289299359294E-20   9.13885545708116E-20
      7.52495588688440E-15
      7.00000000000000E-01
      0.00000000000000E+00   0.00000000000000E+00   0.00000000000000E+00   0.00000000000000E+00  -6.02307200257767E-20
     -4.48209945402432E-20  -1.05051714566020E-19  -7.52936898154536E-15   7.00000000000000E-03   7.00000000000000E-03
      0.00000000000000E+00   0.00000000000000E+00   8.49766700555853E-20   2.00750445104357E-20   1.05051714566021E-19
      7.52936898154527E-15
      8.00000000000000E-01
      0.00000000000000E+00   0.00000000000000E+00   0.00000000000000E+00   0.00000000000000E+00  -6.75801073048389E-20
     -5.07331495554004E-20  -1.18313256860239E-19  -7.53377974817132E-15   8.00000000000000E-03   8.00000000000000E-03
      0.00000000000000E+00   0.00000000000000E+00   9.57886414222676E-20   2.25246154379734E-20   1.18313256860241E-19
      7.53377974817123E-15
      9.00000000000000E-01
      0.00000000000000E+00   0.00000000000000E+00   0.00000000000000E+00   0.00000000000000E+00  -7.46507560782977E-20
     -5.65383202235188E-20  -1.31189076301817E-19  -7.53818819001556E-15   9.00000000000000E-03   9.00000000000000E-03
      0.00000000000000E+00   0.00000000000000E+00   1.06307794695636E-19   2.48812816061831E-20   1.31189076301819E-19
      7.53818819001561E-15
      1.00000000000000E+00
      0.00000000000000E+00   0.00000000000000E+00   0.00000000000000E+00   0.00000000000000E+00  -8.14532676094086E-20
     -6.22413490202552E-20  -1.43694616629664E-19  -7.54259431029477E-15   1.00000000000000E-02   1.00000000000000E-02
      0.00000000000000E+00   0.00000000000000E+00   1.16546043856031E-19   2.71485727736342E-20   1.43694616629665E-19
      7.54259431029465E-15
      0.00000000000000E+00
      0.00000000000000E+00   0.00000000000000E+00   0.00000000000000E+00   0.00000000000000E+00  -8.14532654058318E-20
     -6.22413508544453E-20  -1.43694616260277E-19  -7.54259431029215E-15   1.00000000000000E-02   1.00000000000000E-02
      0.00000000000000E+00   0.00000000000000E+00   1.16546041652257E-19   2.71485746080206E-20   1.43694616260278E-19
      7.54259431029211E-15
      1.00000000000000E-01
      0.00000000000000E+00   0.00000000000000E+00   0.00000000000000E+00   0.00000000000000E+00  -1.32165738259652E-19
     -1.09700767224612E-19  -2.41866505484264E-19  -7.58214543506196E-15   1.90000000000000E-02   1.90000000000000E-02
      0.00000000000000E+00   0.00000000000000E+00   1.97815328516421E-19   4.40511769678380E-20   2.41866505484259E-19
      7.58214543506196E-15
      2.00000000000000E-01
      0.00000000000000E+00   0.00000000000000E+00   0.00000000000000E+00   0.00000000000000E+00  -1.67975672809829E-19
     -1.52157875674553E-19  -3.20133548484382E-19  -7.62151094025216E-15   2.80000000000000E-02   2.80000000000000E-02
      0.00000000000000E+00   0.00000000000000E+00   2.64146814370982E-19   5.59867341134003E-20   3.20133548484382E-19
      7.62151094025234E-15
      3.00000000000000E-01
      0.00000000000000E+00   0.00000000000000E+00   0.00000000000000E+00   0.00000000000000E+00  -1.93263747054240E-19
     -1.91908421199592E-19  -3.85172168253832E-19  -7.66069279494240E-15   3.70000000000000E-02   3.70000000000000E-02
      0.00000000000000E+00   0.00000000000000E+00   3.20756835583410E-19   6.44153326704259E-20   3.85172168253836E-19
      7.66069279494240E-15
      4.00000000000000E-01
      0.00000000000000E+00   0.00000000000000E+00   0.00000000000000E+00   0.00000000000000E+00  -2.11122814561050E-19
     -2.30777239833293E-19  -4.41900054394342E-19  -7.69969276723325E-15   4.60000000000000E-02   4.60000000000000E-02
      0.00000000000000E+00   0.00000000000000E+00   3.71532227373974E-19   7.03678270203695E-20   4.41900054394344E-19
      7.69969276723323E-15
      5.00000000000000E-01
      0.00000000000000E+00   0.00000000000000E+00   0.00000000000000E+00   0.00000000000000E+00  -2.23736621767752E-19
     -2.70264663934963E-19  -4.94001285702715E-19  -7.73851244348899E-15   5.50000000000000E-02   5.50000000000000E-02
      0.00000000000000E+00   0.00000000000000E+00   4.19429221939057E-19   7.45720637636579E-20   4.94001285702715E-19
      7.73851244348894E-15
      6.00000000000000E-01
      0.00000000000000E+00   0.00000000000000E+00   0.00000000000000E+00   0.00000000000000E+00  -2.32647012383954E-19
     -3.11652320947793E-19  -5.44299333331748E-19  -7.77715324740442E-15   6.40000000000000E-02   6.40000000000000E-02
      0.00000000000000E+00   0.00000000000000E+00   4.66757390232488E-19   7.75419430992574E-20   5.44299333331745E-19
      7.77715324740439E-15
      7.00000000000000E-01
      0.00000000000000E+00   0.00000000000000E+00   0.00000000000000E+00   0.00000000000000E+00  -2.38942631265220E-19
     -3.56079594064499E-19  -5.95022225329719E-19  -7.81561645879000E-15   7.30000000000000E-02   7.30000000000000E-02
      0.00000000000000E+00   0.00000000000000E+00   5.15381913569200E-19   7.96403117605238E-20   5.95022225329724E-19
      7.81561645879003E-15
      8.00000000000000E-01
      0.00000000000000E+00   0.00000000000000E+00   0.00000000000000E+00   0.00000000000000E+00  -2.43392062796379E-19
     -4.04598480102694E-19  -6.47990542899073E-19  -7.85390323200015E-15   8.20000000000000E-02   8.20000000000000E-02
      0.00000000000000E+00   0.00000000000000E+00   5.66867200235179E-19   8.11233426639014E-20   6.47990542899080E-19
      7.85390323200012E-15
      9.00000000000000E-01
      0.00000000000000E+00   0.00000000000000E+00   0.00000000000000E+00   0.00000000000000E+00  -2.46537981982324E-19
     -4.58212251069085E-19  -7.04750233051409E-19  -7.89201461392807E-15   9.10000000000000E-02   9.10000000000000E-02
      0.00000000000000E+00   0.00000000000000E+00   6.22578325283291E-19   8.21719077681247E-20   7.04750233051416E-19
      7.89201461392809E-15
      1.00000000000000E+00
      0.00000000000000E+00   0.00000000000000E+00   0.00000000000000E+00   0.00000000000000E+00  -2.48763549880557E-19
     -5.17901429275106E-19  -7.66664979155663E-19  -7.92995156150204E-15   1.00000000000000E-01   1.00000000000000E-01
      0.00000000000000E+00   0.00000000000000E+00   6.83751261103733E-19   8.29137180519029E-20   7.66664979155636E-19
      7.92995156150196E-15
}
