DF-ISE text

Info {
  version   = 1.0
  type      = xyplot
  datasets  = [
    "time"
    "n1contact OuterVoltage" "n1contact InnerVoltage" "n1contact QuasiFermiPotential" "n1contact DisplacementCurrent" "n1contact eCurrent"
    "n1contact hCurrent" "n1contact TotalCurrent" "n1contact Charge" "n2contact OuterVoltage" "n2contact InnerVoltage"
    "n2contact QuasiFermiPotential" "n2contact DisplacementCurrent" "n2contact eCurrent" "n2contact hCurrent" "n2contact TotalCurrent"
    "n2contact Charge" ]
  functions = [
    Time
    OuterVoltage InnerVoltage QuasiFermiPotential DisplacementCurrent eCurrent
    hCurrent TotalCurrent Charge OuterVoltage InnerVoltage
    QuasiFermiPotential DisplacementCurrent eCurrent hCurrent TotalCurrent
    Charge ]
}

Data {
      0.00000000000000E+00
      0.00000000000000E+00   0.00000000000000E+00   0.00000000000000E+00   0.00000000000000E+00   3.86733673210316E-38
     -3.86733673210316E-38   0.00000000000000E+00   0.00000000000000E+00   0.00000000000000E+00   0.00000000000000E+00
      0.00000000000000E+00   0.00000000000000E+00   3.63116349655489E-38  -3.63116349655489E-38   0.00000000000000E+00
      0.00000000000000E+00
      0.00000000000000E+00
      0.00000000000000E+00   0.00000000000000E+00   0.00000000000000E+00   0.00000000000000E+00   3.86733673210316E-38
     -3.86733673210316E-38   0.00000000000000E+00   0.00000000000000E+00   0.00000000000000E+00   0.00000000000000E+00
      0.00000000000000E+00   0.00000000000000E+00   3.63116349655489E-38  -3.63116349655489E-38   0.00000000000000E+00
      0.00000000000000E+00
      0.00000000000000E+00
      0.00000000000000E+00   0.00000000000000E+00   0.00000000000000E+00   0.00000000000000E+00   3.86733673210316E-38
     -3.86733673210316E-38   0.00000000000000E+00   0.00000000000000E+00   0.00000000000000E+00   0.00000000000000E+00
      0.00000000000000E+00   0.00000000000000E+00   3.63116349655489E-38  -3.63116349655489E-38   0.00000000000000E+00
      0.00000000000000E+00
      1.00000000000000E-01
      0.00000000000000E+00   0.00000000000000E+00   0.00000000000000E+00   0.00000000000000E+00  -2.27030606400423E-07
     -1.07607434470906E-19  -2.27030606400531E-07  -1.03594140000054E-19   1.00000000000000E-03   1.00000000000000E-03
      0.00000000000000E+00   0.00000000000000E+00   2.27030606400423E-07   1.07607434470906E-19   2.27030606400531E-07
      1.03594140000054E-19
      2.00000000000000E-01
      0.00000000000000E+00   0.00000000000000E+00   0.00000000000000E+00   0.00000000000000E+00  -4.54061212800569E-07
     -2.15214868941597E-19  -4.54061212800784E-07  -2.07188279999956E-19   2.00000000000000E-03   2.00000000000000E-03
      0.00000000000000E+00   0.00000000000000E+00   4.54061212800569E-07   2.15214868941597E-19   4.54061212800784E-07
      2.07188279999956E-19
      3.00000000000000E-01
      0.00000000000000E+00   0.00000000000000E+00   0.00000000000000E+00   0.00000000000000E+00  -6.81091819200977E-07
     -3.22822303412523E-19  -6.81091819201300E-07  -3.10782420000011E-19   3.00000000000000E-03   3.00000000000000E-03
      0.00000000000000E+00   0.00000000000000E+00   6.81091819200977E-07   3.22822303412523E-19   6.81091819201300E-07
      3.10782420000011E-19
      4.00000000000000E-01
      0.00000000000000E+00   0.00000000000000E+00   0.00000000000000E+00   0.00000000000000E+00  -9.08122425601433E-07
     -4.30429737883429E-19  -9.08122425601864E-07  -4.14376560000065E-19   4.00000000000000E-03   4.00000000000000E-03
      0.00000000000000E+00   0.00000000000000E+00   9.08122425601433E-07   4.30429737883429E-19   9.08122425601864E-07
      4.14376560000065E-19
      5.00000000000000E-01
      0.00000000000000E+00   0.00000000000000E+00   0.00000000000000E+00   0.00000000000000E+00  -1.13515303200153E-06
     -5.38037172354140E-19  -1.13515303200207E-06  -5.17970699999967E-19   5.00000000000000E-03   5.00000000000000E-03
      0.00000000000000E+00   0.00000000000000E+00   1.13515303200153E-06   5.38037172354140E-19   1.13515303200207E-06
      5.17970699999966E-19
      6.00000000000000E-01
      0.00000000000000E+00   0.00000000000000E+00   0.00000000000000E+00   0.00000000000000E+00  -1.36218363840199E-06
     -6.45644606825065E-19  -1.36218363840263E-06  -6.21564840000022E-19   6.00000000000000E-03   6.00000000000000E-03
      0.00000000000000E+00   0.00000000000000E+00   1.36218363840199E-06   6.45644606825065E-19   1.36218363840263E-06
      6.21564840000021E-19
      7.00000000000000E-01
      0.00000000000000E+00   0.00000000000000E+00   0.00000000000000E+00   0.00000000000000E+00  -1.58921424480244E-06
     -7.53252041295913E-19  -1.58921424480320E-06  -7.25158980000076E-19   7.00000000000000E-03   7.00000000000000E-03
      0.00000000000000E+00   0.00000000000000E+00   1.58921424480244E-06   7.53252041295913E-19   1.58921424480320E-06
      7.25158980000075E-19
      8.00000000000000E-01
      0.00000000000000E+00   0.00000000000000E+00   0.00000000000000E+00   0.00000000000000E+00  -1.81624485120257E-06
     -8.60859475766662E-19  -1.81624485120344E-06  -8.28753119999977E-19   8.00000000000000E-03   8.00000000000000E-03
      0.00000000000000E+00   0.00000000000000E+00   1.81624485120257E-06   8.60859475766662E-19   1.81624485120344E-06
      8.28753119999977E-19
      9.00000000000000E-01
      0.00000000000000E+00   0.00000000000000E+00   0.00000000000000E+00   0.00000000000000E+00  -2.04327545760300E-06
     -9.68466910237588E-19  -2.04327545760397E-06  -9.32347260000031E-19   9.00000000000000E-03   9.00000000000000E-03
      0.00000000000000E+00   0.00000000000000E+00   2.04327545760300E-06   9.68466910237588E-19   2.04327545760397E-06
      9.32347260000031E-19
      1.00000000000000E+00
      0.00000000000000E+00   0.00000000000000E+00   0.00000000000000E+00   0.00000000000000E+00  -2.27030606400345E-06
     -1.07607434470846E-18  -2.27030606400453E-06  -1.03594140000009E-18   1.00000000000000E-02   1.00000000000000E-02
      0.00000000000000E+00   0.00000000000000E+00   2.27030606400345E-06   1.07607434470846E-18   2.27030606400453E-06
      1.03594140000009E-18
      0.00000000000000E+00
      0.00000000000000E+00   0.00000000000000E+00   0.00000000000000E+00   0.00000000000000E+00  -2.27030606400310E-06
     -1.07607434470830E-18  -2.27030606400417E-06  -1.03594139999993E-18   1.00000000000000E-02   1.00000000000000E-02
      0.00000000000000E+00   0.00000000000000E+00   2.27030606400310E-06   1.07607434470830E-18   2.27030606400417E-06
      1.03594139999993E-18
      1.00000000000000E-01
      0.00000000000000E+00   0.00000000000000E+00   0.00000000000000E+00   0.00000000000000E+00  -4.31358152160611E-06
     -2.04454125494585E-18  -4.31358152160815E-06  -1.96828865999997E-18   1.90000000000000E-02   1.90000000000000E-02
      0.00000000000000E+00   0.00000000000000E+00   4.31358152160611E-06   2.04454125494585E-18   4.31358152160815E-06
      1.96828865999996E-18
      2.00000000000000E-01
      0.00000000000000E+00   0.00000000000000E+00   0.00000000000000E+00   0.00000000000000E+00  -6.35685697920909E-06
     -3.01300816518341E-18  -6.35685697921210E-06  -2.90063592000000E-18   2.80000000000000E-02   2.80000000000000E-02
      0.00000000000000E+00   0.00000000000000E+00   6.35685697920909E-06   3.01300816518341E-18   6.35685697921210E-06
      2.90063592000000E-18
      3.00000000000000E-01
      0.00000000000000E+00   0.00000000000000E+00   0.00000000000000E+00   0.00000000000000E+00  -8.40013243681207E-06
     -3.98147507542099E-18  -8.40013243681605E-06  -3.83298318000002E-18   3.70000000000000E-02   3.70000000000000E-02
      0.00000000000000E+00   0.00000000000000E+00   8.40013243681207E-06   3.98147507542099E-18   8.40013243681605E-06
      3.83298318000003E-18
      4.00000000000000E-01
      0.00000000000000E+00   0.00000000000000E+00   0.00000000000000E+00   0.00000000000000E+00  -1.04434078944151E-05
     -4.94994198565854E-18  -1.04434078944200E-05  -4.76533044000006E-18   4.60000000000000E-02   4.60000000000000E-02
      0.00000000000000E+00   0.00000000000000E+00   1.04434078944151E-05   4.94994198565854E-18   1.04434078944200E-05
      4.76533044000006E-18
      5.00000000000000E-01
      0.00000000000000E+00   0.00000000000000E+00   0.00000000000000E+00   0.00000000000000E+00  -1.24866833520177E-05
     -5.91840889589593E-18  -1.24866833520236E-05  -5.69767769999994E-18   5.50000000000000E-02   5.50000000000000E-02
      0.00000000000000E+00   0.00000000000000E+00   1.24866833520177E-05   5.91840889589593E-18   1.24866833520236E-05
      5.69767769999994E-18
      6.00000000000000E-01
      0.00000000000000E+00   0.00000000000000E+00   0.00000000000000E+00   0.00000000000000E+00  -1.45299588096210E-05
     -6.88687580613365E-18  -1.45299588096279E-05  -6.63002496000012E-18   6.40000000000000E-02   6.40000000000000E-02
      0.00000000000000E+00   0.00000000000000E+00   1.45299588096210E-05   6.88687580613365E-18   1.45299588096279E-05
      6.63002496000013E-18
      7.00000000000000E-01
      0.00000000000000E+00   0.00000000000000E+00   0.00000000000000E+00   0.00000000000000E+00  -1.65732342672237E-05
     -7.85534271637100E-18  -1.65732342672316E-05  -7.56237221999999E-18   7.30000000000000E-02   7.30000000000000E-02
      0.00000000000000E+00   0.00000000000000E+00   1.65732342672237E-05   7.85534271637100E-18   1.65732342672316E-05
      7.56237222000000E-18
      8.00000000000000E-01
      0.00000000000000E+00   0.00000000000000E+00   0.00000000000000E+00   0.00000000000000E+00  -1.86165097248267E-05
     -8.82380962660864E-18  -1.86165097248355E-05  -8.49471948000003E-18   8.20000000000000E-02   8.20000000000000E-02
      0.00000000000000E+00   0.00000000000000E+00   1.86165097248267E-05   8.82380962660864E-18   1.86165097248355E-05
      8.49471948000004E-18
      9.00000000000000E-01
      0.00000000000000E+00   0.00000000000000E+00   0.00000000000000E+00   0.00000000000000E+00  -2.06597851824297E-05
     -9.79227653684616E-18  -2.06597851824395E-05  -9.42706674000007E-18   9.10000000000000E-02   9.10000000000000E-02
      0.00000000000000E+00   0.00000000000000E+00   2.06597851824297E-05   9.79227653684616E-18   2.06597851824395E-05
      9.42706674000006E-18
      1.00000000000000E+00
      0.00000000000000E+00   0.00000000000000E+00   0.00000000000000E+00   0.00000000000000E+00  -2.27030606400327E-05
     -1.07607434470837E-17  -2.27030606400435E-05  -1.03594140000001E-17   1.00000000000000E-01   1.00000000000000E-01
      0.00000000000000E+00   0.00000000000000E+00   2.27030606400327E-05   1.07607434470837E-17   2.27030606400435E-05
      1.03594140000001E-17
      0.00000000000000E+00
      0.00000000000000E+00   0.00000000000000E+00   0.00000000000000E+00   0.00000000000000E+00  -2.27030606400324E-05
     -1.07607434470835E-17  -2.27030606400431E-05  -1.03594140000000E-17   1.00000000000000E-01   1.00000000000000E-01
      0.00000000000000E+00   0.00000000000000E+00   2.27030606400324E-05   1.07607434470835E-17   2.27030606400431E-05
      1.03594139999999E-17
      2.00000000000000E-02
      0.00000000000000E+00   0.00000000000000E+00   0.00000000000000E+00   0.00000000000000E+00  -2.67896115552387E-05
     -1.26976772675589E-17  -2.67896115552514E-05  -1.22241085200002E-17   1.18000000000000E-01   1.18000000000000E-01
      0.00000000000000E+00   0.00000000000000E+00   2.67896115552387E-05   1.26976772675589E-17   2.67896115552514E-05
      1.22241085200002E-17
      4.00000000000000E-02
      0.00000000000000E+00   0.00000000000000E+00   0.00000000000000E+00   0.00000000000000E+00  -3.08761624704443E-05
     -1.46346110880338E-17  -3.08761624704590E-05  -1.40888030400001E-17   1.36000000000000E-01   1.36000000000000E-01
      0.00000000000000E+00   0.00000000000000E+00   3.08761624704443E-05   1.46346110880338E-17   3.08761624704590E-05
      1.40888030400001E-17
      6.00000000000000E-02
      0.00000000000000E+00   0.00000000000000E+00   0.00000000000000E+00   0.00000000000000E+00  -3.49627133856503E-05
     -1.65715449085089E-17  -3.49627133856669E-05  -1.59534975600001E-17   1.54000000000000E-01   1.54000000000000E-01
      0.00000000000000E+00   0.00000000000000E+00   3.49627133856503E-05   1.65715449085089E-17   3.49627133856669E-05
      1.59534975600001E-17
      8.00000000000000E-02
      0.00000000000000E+00   0.00000000000000E+00   0.00000000000000E+00   0.00000000000000E+00  -3.90492643008556E-05
     -1.85084787289837E-17  -3.90492643008742E-05  -1.78181920799999E-17   1.72000000000000E-01   1.72000000000000E-01
      0.00000000000000E+00   0.00000000000000E+00   3.90492643008556E-05   1.85084787289837E-17   3.90492643008742E-05
      1.78181920799999E-17
      1.00000000000000E-01
      0.00000000000000E+00   0.00000000000000E+00   0.00000000000000E+00   0.00000000000000E+00  -4.31358152160617E-05
     -2.04454125494589E-17  -4.31358152160821E-05  -1.96828866000000E-17   1.90000000000000E-01   1.90000000000000E-01
      0.00000000000000E+00   0.00000000000000E+00   4.31358152160617E-05   2.04454125494589E-17   4.31358152160821E-05
      1.96828866000000E-17
      1.20000000000000E-01
      0.00000000000000E+00   0.00000000000000E+00   0.00000000000000E+00   0.00000000000000E+00  -4.72223661312676E-05
     -2.23823463699340E-17  -4.72223661312900E-05  -2.15475811200000E-17   2.08000000000000E-01   2.08000000000000E-01
      0.00000000000000E+00   0.00000000000000E+00   4.72223661312676E-05   2.23823463699340E-17   4.72223661312900E-05
      2.15475811200000E-17
      1.40000000000000E-01
      0.00000000000000E+00   0.00000000000000E+00   0.00000000000000E+00   0.00000000000000E+00  -5.13089170464736E-05
     -2.43192801904089E-17  -5.13089170464979E-05  -2.34122756400001E-17   2.26000000000000E-01   2.26000000000000E-01
      0.00000000000000E+00   0.00000000000000E+00   5.13089170464736E-05   2.43192801904089E-17   5.13089170464979E-05
      2.34122756400001E-17
      1.60000000000000E-01
      0.00000000000000E+00   0.00000000000000E+00   0.00000000000000E+00   0.00000000000000E+00  -5.53954679616789E-05
     -2.62562140108839E-17  -5.53954679617052E-05  -2.52769701599999E-17   2.44000000000000E-01   2.44000000000000E-01
      0.00000000000000E+00   0.00000000000000E+00   5.53954679616789E-05   2.62562140108839E-17   5.53954679617052E-05
      2.52769701599998E-17
      1.80000000000000E-01
      0.00000000000000E+00   0.00000000000000E+00   0.00000000000000E+00   0.00000000000000E+00  -5.94820188768849E-05
     -2.81931478313588E-17  -5.94820188769131E-05  -2.71416646799999E-17   2.62000000000000E-01   2.62000000000000E-01
      0.00000000000000E+00   0.00000000000000E+00   5.94820188768849E-05   2.81931478313588E-17   5.94820188769131E-05
      2.71416646799999E-17
      2.00000000000000E-01
      0.00000000000000E+00   0.00000000000000E+00   0.00000000000000E+00   0.00000000000000E+00  -6.35685697920915E-05
     -3.01300816518345E-17  -6.35685697921217E-05  -2.90063592000003E-17   2.80000000000000E-01   2.80000000000000E-01
      0.00000000000000E+00   0.00000000000000E+00   6.35685697920915E-05   3.01300816518345E-17   6.35685697921217E-05
      2.90063592000003E-17
      2.20000000000000E-01
      0.00000000000000E+00   0.00000000000000E+00   0.00000000000000E+00   0.00000000000000E+00  -6.76551207072970E-05
     -3.20670154723091E-17  -6.76551207073290E-05  -3.08710537200000E-17   2.98000000000000E-01   2.98000000000000E-01
      0.00000000000000E+00   0.00000000000000E+00   6.76551207072970E-05   3.20670154723091E-17   6.76551207073290E-05
      3.08710537200000E-17
      2.40000000000000E-01
      0.00000000000000E+00   0.00000000000000E+00   0.00000000000000E+00   0.00000000000000E+00  -7.17416716225028E-05
     -3.40039492927844E-17  -7.17416716225368E-05  -3.27357482400001E-17   3.16000000000000E-01   3.16000000000000E-01
      0.00000000000000E+00   0.00000000000000E+00   7.17416716225028E-05   3.40039492927844E-17   7.17416716225368E-05
      3.27357482400001E-17
      2.60000000000000E-01
      0.00000000000000E+00   0.00000000000000E+00   0.00000000000000E+00   0.00000000000000E+00  -7.58282225377082E-05
     -3.59408831132589E-17  -7.58282225377442E-05  -3.46004427599998E-17   3.34000000000000E-01   3.34000000000000E-01
      0.00000000000000E+00   0.00000000000000E+00   7.58282225377082E-05   3.59408831132589E-17   7.58282225377442E-05
      3.46004427599998E-17
      2.80000000000000E-01
      0.00000000000000E+00   0.00000000000000E+00   0.00000000000000E+00   0.00000000000000E+00  -7.99147734529148E-05
     -3.78778169337346E-17  -7.99147734529527E-05  -3.64651372800002E-17   3.52000000000000E-01   3.52000000000000E-01
      0.00000000000000E+00   0.00000000000000E+00   7.99147734529148E-05   3.78778169337346E-17   7.99147734529527E-05
      3.64651372800002E-17
      3.00000000000000E-01
      0.00000000000000E+00   0.00000000000000E+00   0.00000000000000E+00   0.00000000000000E+00  -8.40013243681201E-05
     -3.98147507542094E-17  -8.40013243681599E-05  -3.83298318000000E-17   3.70000000000000E-01   3.70000000000000E-01
      0.00000000000000E+00   0.00000000000000E+00   8.40013243681201E-05   3.98147507542094E-17   8.40013243681599E-05
      3.83298318000000E-17
      3.20000000000000E-01
      0.00000000000000E+00   0.00000000000000E+00   0.00000000000000E+00   0.00000000000000E+00  -8.80878752833262E-05
     -4.17516845746843E-17  -8.80878752833679E-05  -4.01945263200001E-17   3.88000000000000E-01   3.88000000000000E-01
      0.00000000000000E+00   0.00000000000000E+00   8.80878752833262E-05   4.17516845746843E-17   8.80878752833679E-05
      4.01945263200000E-17
      3.40000000000000E-01
      0.00000000000000E+00   0.00000000000000E+00   0.00000000000000E+00   0.00000000000000E+00  -9.21744261985321E-05
     -4.36886183951597E-17  -9.21744261985758E-05  -4.20592208400001E-17   4.06000000000000E-01   4.06000000000000E-01
      0.00000000000000E+00   0.00000000000000E+00   9.21744261985321E-05   4.36886183951597E-17   9.21744261985758E-05
      4.20592208400001E-17
      3.60000000000000E-01
      0.00000000000000E+00   0.00000000000000E+00   0.00000000000000E+00   0.00000000000000E+00  -9.62609771137374E-05
     -4.56255522156345E-17  -9.62609771137830E-05  -4.39239153600000E-17   4.24000000000000E-01   4.24000000000000E-01
      0.00000000000000E+00   0.00000000000000E+00   9.62609771137374E-05   4.56255522156345E-17   9.62609771137830E-05
      4.39239153599999E-17
      3.80000000000000E-01
      0.00000000000000E+00   0.00000000000000E+00   0.00000000000000E+00   0.00000000000000E+00  -1.00347528028944E-04
     -4.75624860361099E-17  -1.00347528028992E-04  -4.57886098800003E-17   4.42000000000000E-01   4.42000000000000E-01
      0.00000000000000E+00   0.00000000000000E+00   1.00347528028944E-04   4.75624860361099E-17   1.00347528028992E-04
      4.57886098800002E-17
      4.00000000000000E-01
      0.00000000000000E+00   0.00000000000000E+00   0.00000000000000E+00   0.00000000000000E+00  -1.04434078944149E-04
     -4.94994198565847E-17  -1.04434078944199E-04  -4.76533044000001E-17   4.60000000000000E-01   4.60000000000000E-01
      0.00000000000000E+00   0.00000000000000E+00   1.04434078944149E-04   4.94994198565847E-17   1.04434078944199E-04
      4.76533044000000E-17
      4.20000000000000E-01
      0.00000000000000E+00   0.00000000000000E+00   0.00000000000000E+00   0.00000000000000E+00  -1.08520629859355E-04
     -5.14363536770598E-17  -1.08520629859407E-04  -4.95179989200001E-17   4.78000000000000E-01   4.78000000000000E-01
      0.00000000000000E+00   0.00000000000000E+00   1.08520629859355E-04   5.14363536770598E-17   1.08520629859407E-04
      4.95179989200000E-17
      4.40000000000000E-01
      0.00000000000000E+00   0.00000000000000E+00   0.00000000000000E+00   0.00000000000000E+00  -1.12607180774561E-04
     -5.33732874975343E-17  -1.12607180774614E-04  -5.13826934399999E-17   4.96000000000000E-01   4.96000000000000E-01
      0.00000000000000E+00   0.00000000000000E+00   1.12607180774561E-04   5.33732874975343E-17   1.12607180774614E-04
      5.13826934399998E-17
      4.60000000000000E-01
      0.00000000000000E+00   0.00000000000000E+00   0.00000000000000E+00   0.00000000000000E+00  -1.16693731689767E-04
     -5.53102213180098E-17  -1.16693731689822E-04  -5.32473879599999E-17   5.14000000000000E-01   5.14000000000000E-01
      0.00000000000000E+00   0.00000000000000E+00   1.16693731689767E-04   5.53102213180098E-17   1.16693731689822E-04
      5.32473879599998E-17
      4.80000000000000E-01
      0.00000000000000E+00   0.00000000000000E+00   0.00000000000000E+00   0.00000000000000E+00  -1.20780282604973E-04
     -5.72471551384849E-17  -1.20780282605030E-04  -5.51120824800000E-17   5.32000000000000E-01   5.32000000000000E-01
      0.00000000000000E+00   0.00000000000000E+00   1.20780282604973E-04   5.72471551384849E-17   1.20780282605030E-04
      5.51120824799999E-17
      5.00000000000000E-01
      0.00000000000000E+00   0.00000000000000E+00   0.00000000000000E+00   0.00000000000000E+00  -1.24866833520179E-04
     -5.91840889589596E-17  -1.24866833520238E-04  -5.69767770000000E-17   5.50000000000000E-01   5.50000000000000E-01
      0.00000000000000E+00   0.00000000000000E+00   1.24866833520179E-04   5.91840889589596E-17   1.24866833520238E-04
      5.69767770000000E-17
      5.20000000000000E-01
      0.00000000000000E+00   0.00000000000000E+00   0.00000000000000E+00   0.00000000000000E+00  -1.28953384435385E-04
     -6.11210227794351E-17  -1.28953384435446E-04  -5.88414715200001E-17   5.68000000000000E-01   5.68000000000000E-01
      0.00000000000000E+00   0.00000000000000E+00   1.28953384435385E-04   6.11210227794351E-17   1.28953384435446E-04
      5.88414715200000E-17
      5.40000000000000E-01
      0.00000000000000E+00   0.00000000000000E+00   0.00000000000000E+00   0.00000000000000E+00  -1.33039935350591E-04
     -6.30579565999103E-17  -1.33039935350654E-04  -6.07061660400001E-17   5.86000000000000E-01   5.86000000000000E-01
      0.00000000000000E+00   0.00000000000000E+00   1.33039935350591E-04   6.30579565999103E-17   1.33039935350654E-04
      6.07061660400001E-17
      5.60000000000000E-01
      0.00000000000000E+00   0.00000000000000E+00   0.00000000000000E+00   0.00000000000000E+00  -1.37126486265796E-04
     -6.49948904203851E-17  -1.37126486265861E-04  -6.25708605599998E-17   6.04000000000000E-01   6.04000000000000E-01
      0.00000000000000E+00   0.00000000000000E+00   1.37126486265796E-04   6.49948904203851E-17   1.37126486265861E-04
      6.25708605599999E-17
      5.80000000000000E-01
      0.00000000000000E+00   0.00000000000000E+00   0.00000000000000E+00   0.00000000000000E+00  -1.41213037181002E-04
     -6.69318242408597E-17  -1.41213037181069E-04  -6.44355550800000E-17   6.22000000000000E-01   6.22000000000000E-01
      0.00000000000000E+00   0.00000000000000E+00   1.41213037181002E-04   6.69318242408597E-17   1.41213037181069E-04
      6.44355550799999E-17
      6.00000000000000E-01
      0.00000000000000E+00   0.00000000000000E+00   0.00000000000000E+00   0.00000000000000E+00  -1.45299588096208E-04
     -6.88687580613353E-17  -1.45299588096277E-04  -6.63002496000000E-17   6.40000000000000E-01   6.40000000000000E-01
      0.00000000000000E+00   0.00000000000000E+00   1.45299588096208E-04   6.88687580613353E-17   1.45299588096277E-04
      6.63002496000000E-17
      6.20000000000000E-01
      0.00000000000000E+00   0.00000000000000E+00   0.00000000000000E+00   0.00000000000000E+00  -1.49386139011414E-04
     -7.08056918818104E-17  -1.49386139011485E-04  -6.81649441200001E-17   6.58000000000000E-01   6.58000000000000E-01
      0.00000000000000E+00   0.00000000000000E+00   1.49386139011414E-04   7.08056918818104E-17   1.49386139011485E-04
      6.81649441200001E-17
      6.40000000000000E-01
      0.00000000000000E+00   0.00000000000000E+00   0.00000000000000E+00   0.00000000000000E+00  -1.53472689926620E-04
     -7.27426257022850E-17  -1.53472689926693E-04  -7.00296386400002E-17   6.76000000000000E-01   6.76000000000000E-01
      0.00000000000000E+00   0.00000000000000E+00   1.53472689926620E-04   7.27426257022850E-17   1.53472689926693E-04
      7.00296386400001E-17
      6.60000000000000E-01
      0.00000000000000E+00   0.00000000000000E+00   0.00000000000000E+00   0.00000000000000E+00  -1.57559240841825E-04
     -7.46795595227603E-17  -1.57559240841900E-04  -7.18943331600000E-17   6.94000000000000E-01   6.94000000000000E-01
      0.00000000000000E+00   0.00000000000000E+00   1.57559240841825E-04   7.46795595227603E-17   1.57559240841900E-04
      7.18943331599999E-17
      6.80000000000000E-01
      0.00000000000000E+00   0.00000000000000E+00   0.00000000000000E+00   0.00000000000000E+00  -1.61645791757031E-04
     -7.66164933432355E-17  -1.61645791757108E-04  -7.37590276800001E-17   7.12000000000000E-01   7.12000000000000E-01
      0.00000000000000E+00   0.00000000000000E+00   1.61645791757031E-04   7.66164933432355E-17   1.61645791757108E-04
      7.37590276800000E-17
      7.00000000000000E-01
      0.00000000000000E+00   0.00000000000000E+00   0.00000000000000E+00   0.00000000000000E+00  -1.65732342672237E-04
     -7.85534271637100E-17  -1.65732342672316E-04  -7.56237222000001E-17   7.30000000000000E-01   7.30000000000000E-01
      0.00000000000000E+00   0.00000000000000E+00   1.65732342672237E-04   7.85534271637100E-17   1.65732342672316E-04
      7.56237222000000E-17
      7.20000000000000E-01
      0.00000000000000E+00   0.00000000000000E+00   0.00000000000000E+00   0.00000000000000E+00  -1.69818893587443E-04
     -8.04903609841857E-17  -1.69818893587524E-04  -7.74884167200002E-17   7.48000000000000E-01   7.48000000000000E-01
      0.00000000000000E+00   0.00000000000000E+00   1.69818893587443E-04   8.04903609841857E-17   1.69818893587524E-04
      7.74884167200001E-17
      7.40000000000000E-01
      0.00000000000000E+00   0.00000000000000E+00   0.00000000000000E+00   0.00000000000000E+00  -1.73905444502649E-04
     -8.24272948046609E-17  -1.73905444502732E-04  -7.93531112400003E-17   7.66000000000000E-01   7.66000000000000E-01
      0.00000000000000E+00   0.00000000000000E+00   1.73905444502649E-04   8.24272948046609E-17   1.73905444502732E-04
      7.93531112400001E-17
      7.60000000000000E-01
      0.00000000000000E+00   0.00000000000000E+00   0.00000000000000E+00   0.00000000000000E+00  -1.77991995417854E-04
     -8.43642286251356E-17  -1.77991995417939E-04  -8.12178057600000E-17   7.84000000000000E-01   7.84000000000000E-01
      0.00000000000000E+00   0.00000000000000E+00   1.77991995417854E-04   8.43642286251356E-17   1.77991995417939E-04
      8.12178057599999E-17
      7.80000000000000E-01
      0.00000000000000E+00   0.00000000000000E+00   0.00000000000000E+00   0.00000000000000E+00  -1.82078546333060E-04
     -8.63011624456107E-17  -1.82078546333147E-04  -8.30825002800001E-17   8.02000000000000E-01   8.02000000000000E-01
      0.00000000000000E+00   0.00000000000000E+00   1.82078546333060E-04   8.63011624456107E-17   1.82078546333147E-04
      8.30825002799999E-17
      8.00000000000000E-01
      0.00000000000000E+00   0.00000000000000E+00   0.00000000000000E+00   0.00000000000000E+00  -1.86165097248267E-04
     -8.82380962660859E-17  -1.86165097248355E-04  -8.49471948000001E-17   8.20000000000000E-01   8.20000000000000E-01
      0.00000000000000E+00   0.00000000000000E+00   1.86165097248267E-04   8.82380962660859E-17   1.86165097248355E-04
      8.49471948000000E-17
      8.20000000000000E-01
      0.00000000000000E+00   0.00000000000000E+00   0.00000000000000E+00   0.00000000000000E+00  -1.90251648163472E-04
     -9.01750300865604E-17  -1.90251648163563E-04  -8.68118893200002E-17   8.38000000000000E-01   8.38000000000000E-01
      0.00000000000000E+00   0.00000000000000E+00   1.90251648163472E-04   9.01750300865604E-17   1.90251648163563E-04
      8.68118893200001E-17
      8.40000000000000E-01
      0.00000000000000E+00   0.00000000000000E+00   0.00000000000000E+00   0.00000000000000E+00  -1.94338199078678E-04
     -9.21119639070355E-17  -1.94338199078771E-04  -8.86765838400003E-17   8.56000000000000E-01   8.56000000000000E-01
      0.00000000000000E+00   0.00000000000000E+00   1.94338199078678E-04   9.21119639070355E-17   1.94338199078771E-04
      8.86765838400002E-17
      8.60000000000000E-01
      0.00000000000000E+00   0.00000000000000E+00   0.00000000000000E+00   0.00000000000000E+00  -1.98424749993884E-04
     -9.40488977275109E-17  -1.98424749993978E-04  -9.05412783600001E-17   8.74000000000000E-01   8.74000000000000E-01
      0.00000000000000E+00   0.00000000000000E+00   1.98424749993884E-04   9.40488977275109E-17   1.98424749993978E-04
      9.05412783600000E-17
      8.80000000000000E-01
      0.00000000000000E+00   0.00000000000000E+00   0.00000000000000E+00   0.00000000000000E+00  -2.02511300909090E-04
     -9.59858315479854E-17  -2.02511300909186E-04  -9.24059728800002E-17   8.92000000000000E-01   8.92000000000000E-01
      0.00000000000000E+00   0.00000000000000E+00   2.02511300909090E-04   9.59858315479854E-17   2.02511300909186E-04
      9.24059728800000E-17
      9.00000000000000E-01
      0.00000000000000E+00   0.00000000000000E+00   0.00000000000000E+00   0.00000000000000E+00  -2.06597851824296E-04
     -9.79227653684605E-17  -2.06597851824394E-04  -9.42706674000001E-17   9.10000000000000E-01   9.10000000000000E-01
      0.00000000000000E+00   0.00000000000000E+00   2.06597851824296E-04   9.79227653684605E-17   2.06597851824394E-04
      9.42706674000000E-17
      9.20000000000000E-01
      0.00000000000000E+00   0.00000000000000E+00   0.00000000000000E+00   0.00000000000000E+00  -2.10684402739502E-04
     -9.98596991889363E-17  -2.10684402739602E-04  -9.61353619200003E-17   9.28000000000000E-01   9.28000000000000E-01
      0.00000000000000E+00   0.00000000000000E+00   2.10684402739502E-04   9.98596991889363E-17   2.10684402739602E-04
      9.61353619200001E-17
      9.40000000000001E-01