DF-ISE text

Info {
  version   = 1.0
  type      = xyplot
  datasets  = [
    "time"
    "n1contact OuterVoltage" "n1contact InnerVoltage" "n1contact QuasiFermiPotential" "n1contact DisplacementCurrent" "n1contact eCurrent"
    "n1contact hCurrent" "n1contact TotalCurrent" "n1contact Charge" "n2contact OuterVoltage" "n2contact InnerVoltage"
    "n2contact QuasiFermiPotential" "n2contact DisplacementCurrent" "n2contact eCurrent" "n2contact hCurrent" "n2contact TotalCurrent"
    "n2contact Charge" ]
  functions = [
    Time
    OuterVoltage InnerVoltage QuasiFermiPotential DisplacementCurrent eCurrent
    hCurrent TotalCurrent Charge OuterVoltage InnerVoltage
    QuasiFermiPotential DisplacementCurrent eCurrent hCurrent TotalCurrent
    Charge ]
}

Data {
      0.00000000000000E+00
      0.00000000000000E+00   0.00000000000000E+00   0.00000000000000E+00   0.00000000000000E+00   3.86733673210316E-38
     -3.86733673210316E-38   0.00000000000000E+00   0.00000000000000E+00   0.00000000000000E+00   0.00000000000000E+00
      0.00000000000000E+00   0.00000000000000E+00   3.63116349655489E-38  -3.63116349655489E-38   0.00000000000000E+00
      0.00000000000000E+00
      0.00000000000000E+00
      0.00000000000000E+00   0.00000000000000E+00   0.00000000000000E+00   0.00000000000000E+00   3.86733673210316E-38
     -3.86733673210316E-38   0.00000000000000E+00   0.00000000000000E+00   0.00000000000000E+00   0.00000000000000E+00
      0.00000000000000E+00   0.00000000000000E+00   3.63116349655489E-38  -3.63116349655489E-38   0.00000000000000E+00
      0.00000000000000E+00
      0.00000000000000E+00
      0.00000000000000E+00   0.00000000000000E+00   0.00000000000000E+00   0.00000000000000E+00   3.86733673210316E-38
     -3.86733673210316E-38   0.00000000000000E+00   0.00000000000000E+00   0.00000000000000E+00   0.00000000000000E+00
      0.00000000000000E+00   0.00000000000000E+00   3.63116349655489E-38  -3.63116349655489E-38   0.00000000000000E+00
      0.00000000000000E+00
      1.00000000000000E-01
      0.00000000000000E+00   0.00000000000000E+00   0.00000000000000E+00   0.00000000000000E+00  -2.25351663758410E-07
     -1.07442317251170E-19  -2.25351663758517E-07  -1.03594140000054E-19   1.00000000000000E-03   1.00000000000000E-03
      0.00000000000000E+00   0.00000000000000E+00   2.25351663758410E-07   1.07442317251170E-19   2.25351663758517E-07
      1.03594140000054E-19
      2.00000000000000E-01
      0.00000000000000E+00   0.00000000000000E+00   0.00000000000000E+00   0.00000000000000E+00  -4.46883121068848E-07
     -2.14451031376342E-19  -4.46883121069063E-07  -2.07188279999956E-19   2.00000000000000E-03   2.00000000000000E-03
      0.00000000000000E+00   0.00000000000000E+00   4.46883121068848E-07   2.14451031376342E-19   4.46883121069063E-07
      2.07188279999956E-19
      3.00000000000000E-01
      0.00000000000000E+00   0.00000000000000E+00   0.00000000000000E+00   0.00000000000000E+00  -6.64369473521530E-07
     -3.20953304135088E-19  -6.64369473521851E-07  -3.10782419999858E-19   3.00000000000000E-03   3.00000000000000E-03
      0.00000000000000E+00   0.00000000000000E+00   6.64369473521530E-07   3.20953304135088E-19   6.64369473521851E-07
      3.10782419999858E-19
      4.00000000000000E-01
      0.00000000000000E+00   0.00000000000000E+00   0.00000000000000E+00   0.00000000000000E+00  -8.77742109743043E-07
     -4.26906525011620E-19  -8.77742109743470E-07  -4.14376560000065E-19   4.00000000000000E-03   4.00000000000000E-03
      0.00000000000000E+00   0.00000000000000E+00   8.77742109743043E-07   4.26906525011620E-19   8.77742109743470E-07
      4.14376560000065E-19
      5.00000000000000E-01
      0.00000000000000E+00   0.00000000000000E+00   0.00000000000000E+00   0.00000000000000E+00  -1.08699143228663E-06
     -5.32280379744723E-19  -1.08699143228716E-06  -5.17970699999967E-19   5.00000000000000E-03   5.00000000000000E-03
      0.00000000000000E+00   0.00000000000000E+00   1.08699143228663E-06   5.32280379744723E-19   1.08699143228716E-06
      5.17970699999966E-19
      6.00000000000000E-01
      0.00000000000000E+00   0.00000000000000E+00   0.00000000000000E+00   0.00000000000000E+00  -1.29213991532149E-06
     -6.37051722389810E-19  -1.29213991532212E-06  -6.21564840000022E-19   6.00000000000000E-03   6.00000000000000E-03
      0.00000000000000E+00   0.00000000000000E+00   1.29213991532149E-06   6.37051722389810E-19   1.29213991532212E-06
      6.21564840000021E-19
      7.00000000000000E-01
      0.00000000000000E+00   0.00000000000000E+00   0.00000000000000E+00   0.00000000000000E+00  -1.49322983283293E-06
     -7.41202220747221E-19  -1.49322983283367E-06  -7.25158980000076E-19   7.00000000000000E-03   7.00000000000000E-03
      0.00000000000000E+00   0.00000000000000E+00   1.49322983283293E-06   7.41202220747221E-19   1.49322983283367E-06
      7.25158980000075E-19
      8.00000000000000E-01
      0.00000000000000E+00   0.00000000000000E+00   0.00000000000000E+00   0.00000000000000E+00  -1.69031647452359E-06
     -8.44717047444214E-19  -1.69031647452444E-06  -8.28753119999977E-19   8.00000000000000E-03   8.00000000000000E-03
      0.00000000000000E+00   0.00000000000000E+00   1.69031647452359E-06   8.44717047444214E-19   1.69031647452444E-06
      8.28753119999977E-19
      9.00000000000000E-01
      0.00000000000000E+00   0.00000000000000E+00   0.00000000000000E+00   0.00000000000000E+00  -1.88346395550081E-06
     -9.47584065129646E-19  -1.88346395550176E-06  -9.32347260000031E-19   9.00000000000000E-03   9.00000000000000E-03
      0.00000000000000E+00   0.00000000000000E+00   1.88346395550081E-06   9.47584065129646E-19   1.88346395550176E-06
      9.32347260000031E-19
      1.00000000000000E+00
      0.00000000000000E+00   0.00000000000000E+00   0.00000000000000E+00   0.00000000000000E+00  -2.07274243559320E-06
     -1.04979327906026E-18  -2.07274243559425E-06  -1.03594140000009E-18   1.00000000000000E-02   1.00000000000000E-02
      0.00000000000000E+00   0.00000000000000E+00   2.07274243559320E-06   1.04979327906026E-18   2.07274243559425E-06
      1.03594140000009E-18
      0.00000000000000E+00
      0.00000000000000E+00   0.00000000000000E+00   0.00000000000000E+00   0.00000000000000E+00  -2.07274243559289E-06
     -1.04979327906012E-18  -2.07274243559394E-06  -1.03594139999993E-18   1.00000000000000E-02   1.00000000000000E-02
      0.00000000000000E+00   0.00000000000000E+00   2.07274243559289E-06   1.04979327906012E-18   2.07274243559394E-06
      1.03594139999993E-18
      1.00000000000000E-01
      0.00000000000000E+00   0.00000000000000E+00   0.00000000000000E+00   0.00000000000000E+00  -3.61490862155753E-06
     -1.93911537449591E-18  -3.61490862155947E-06  -1.96828866000012E-18   1.90000000000000E-02   1.90000000000000E-02
      0.00000000000000E+00   0.00000000000000E+00   3.61490862155753E-06   1.93911537449591E-18   3.61490862155947E-06
      1.96828866000012E-18
      2.00000000000000E-01
      0.00000000000000E+00   0.00000000000000E+00   0.00000000000000E+00   0.00000000000000E+00  -4.90614935355860E-06
     -2.77253751294049E-18  -4.90614935356137E-06  -2.90063592000000E-18   2.80000000000000E-02   2.80000000000000E-02
      0.00000000000000E+00   0.00000000000000E+00   4.90614935355860E-06   2.77253751294049E-18   4.90614935356137E-06
      2.90063592000000E-18
      3.00000000000000E-01
      0.00000000000000E+00   0.00000000000000E+00   0.00000000000000E+00   0.00000000000000E+00  -5.99624095935998E-06
     -3.55107388496392E-18  -5.99624095936353E-06  -3.83298318000003E-18   3.70000000000000E-02   3.70000000000000E-02
      0.00000000000000E+00   0.00000000000000E+00   5.99624095935998E-06   3.55107388496392E-18   5.99624095936353E-06
      3.83298318000003E-18
      4.00000000000000E-01
      0.00000000000000E+00   0.00000000000000E+00   0.00000000000000E+00   0.00000000000000E+00  -6.92500478470750E-06
     -4.27721849456817E-18  -6.92500478471178E-06  -4.76533043999990E-18   4.60000000000000E-02   4.60000000000000E-02
      0.00000000000000E+00   0.00000000000000E+00   6.92500478470750E-06   4.27721849456817E-18   6.92500478471178E-06
      4.76533043999991E-18
      5.00000000000000E-01
      0.00000000000000E+00   0.00000000000000E+00   0.00000000000000E+00   0.00000000000000E+00  -7.72347566664307E-06
     -4.95409840681646E-18  -7.72347566664802E-06  -5.69767769999995E-18   5.50000000000000E-02   5.50000000000000E-02
      0.00000000000000E+00   0.00000000000000E+00   7.72347566664307E-06   4.95409840681646E-18   7.72347566664802E-06
      5.69767769999994E-18
      6.00000000000000E-01
      0.00000000000000E+00   0.00000000000000E+00   0.00000000000000E+00   0.00000000000000E+00  -8.41576962785062E-06
     -5.58506561270232E-18  -8.41576962785620E-06  -6.63002495999998E-18   6.40000000000000E-02   6.40000000000000E-02
      0.00000000000000E+00   0.00000000000000E+00   8.41576962785062E-06   5.58506561270232E-18   8.41576962785620E-06
      6.63002495999997E-18
      7.00000000000000E-01
      0.00000000000000E+00   0.00000000000000E+00   0.00000000000000E+00   0.00000000000000E+00  -9.02071949653506E-06
     -6.17347999633944E-18  -9.02071949654123E-06  -7.56237222000000E-18   7.30000000000000E-02   7.30000000000000E-02
      0.00000000000000E+00   0.00000000000000E+00   9.02071949653506E-06   6.17347999633944E-18   9.02071949654123E-06
      7.56237222000000E-18
      8.00000000000000E-01
      0.00000000000000E+00   0.00000000000000E+00   0.00000000000000E+00   0.00000000000000E+00  -9.55315032430888E-06
     -6.72259111754024E-18  -9.55315032431560E-06  -8.49471947999987E-18   8.20000000000000E-02   8.20000000000000E-02
      0.00000000000000E+00   0.00000000000000E+00   9.55315032430888E-06   6.72259111754024E-18   9.55315032431560E-06
      8.49471947999988E-18
      9.00000000000000E-01
      0.00000000000000E+00   0.00000000000000E+00   0.00000000000000E+00   0.00000000000000E+00  -1.00248387312294E-05
     -7.23547560728824E-18  -1.00248387312366E-05  -9.42706674000007E-18   9.10000000000000E-02   9.10000000000000E-02
      0.00000000000000E+00   0.00000000000000E+00   1.00248387312294E-05   7.23547560728824E-18   1.00248387312366E-05
      9.42706674000006E-18
      1.00000000000000E+00
      0.00000000000000E+00   0.00000000000000E+00   0.00000000000000E+00   0.00000000000000E+00  -1.04452271592065E-05
     -7.71500722005414E-18  -1.04452271592142E-05  -1.03594140000000E-17   1.00000000000000E-01   1.00000000000000E-01
      0.00000000000000E+00   0.00000000000000E+00   1.04452271592065E-05   7.71500722005414E-18   1.04452271592142E-05
      1.03594139999999E-17
      0.00000000000000E+00
      0.00000000000000E+00   0.00000000000000E+00   0.00000000000000E+00   0.00000000000000E+00  -1.04452271592068E-05
     -7.71500722005424E-18  -1.04452271592145E-05  -1.03594140000000E-17   1.00000000000000E-01   1.00000000000000E-01
      0.00000000000000E+00   0.00000000000000E+00   1.04452271592068E-05   7.71500722005424E-18   1.04452271592145E-05
      1.03594140000000E-17
      2.00000000000000E-02
      0.00000000000000E+00   0.00000000000000E+00   0.00000000000000E+00   0.00000000000000E+00  -1.11612608877522E-05
     -8.58444140322140E-18  -1.11612608877608E-05  -1.22241085200000E-17   1.18000000000000E-01   1.18000000000000E-01
      0.00000000000000E+00   0.00000000000000E+00   1.11612608877522E-05   8.58444140322140E-18   1.11612608877608E-05
      1.22241085200000E-17
      4.00000000000000E-02
      0.00000000000000E+00   0.00000000000000E+00   0.00000000000000E+00   0.00000000000000E+00  -1.17472546724410E-05
     -9.34968261561324E-18  -1.17472546724504E-05  -1.40888030400001E-17   1.36000000000000E-01   1.36000000000000E-01
      0.00000000000000E+00   0.00000000000000E+00   1.17472546724410E-05   9.34968261561324E-18   1.17472546724504E-05
      1.40888030400001E-17
      6.00000000000000E-02
      0.00000000000000E+00   0.00000000000000E+00   0.00000000000000E+00   0.00000000000000E+00  -1.22347750536055E-05
     -1.00264535598740E-17  -1.22347750536155E-05  -1.59534975600001E-17   1.54000000000000E-01   1.54000000000000E-01
      0.00000000000000E+00   0.00000000000000E+00   1.22347750536055E-05   1.00264535598740E-17   1.22347750536155E-05
      1.59534975600001E-17
      8.00000000000000E-02
      0.00000000000000E+00   0.00000000000000E+00   0.00000000000000E+00   0.00000000000000E+00  -1.26461137175447E-05
     -1.06278348153331E-17  -1.26461137175553E-05  -1.78181920799999E-17   1.72000000000000E-01   1.72000000000000E-01
      0.00000000000000E+00   0.00000000000000E+00   1.26461137175447E-05   1.06278348153331E-17   1.26461137175553E-05
      1.78181920799999E-17
      1.00000000000000E-01
      0.00000000000000E+00   0.00000000000000E+00   0.00000000000000E+00   0.00000000000000E+00  -1.29974139620168E-05
     -1.11646963405570E-17  -1.29974139620280E-05  -1.96828866000000E-17   1.90000000000000E-01   1.90000000000000E-01
      0.00000000000000E+00   0.00000000000000E+00   1.29974139620168E-05   1.11646963405570E-17   1.29974139620280E-05
      1.96828865999999E-17
      1.20000000000000E-01
      0.00000000000000E+00   0.00000000000000E+00   0.00000000000000E+00   0.00000000000000E+00  -1.33006275205203E-05
     -1.16460843405479E-17  -1.33006275205319E-05  -2.15475811200000E-17   2.08000000000000E-01   2.08000000000000E-01
      0.00000000000000E+00   0.00000000000000E+00   1.33006275205203E-05   1.16460843405479E-17   1.33006275205319E-05
      2.15475811200000E-17
      1.40000000000000E-01
      0.00000000000000E+00   0.00000000000000E+00   0.00000000000000E+00   0.00000000000000E+00  -1.35647765987718E-05
     -1.20795496573683E-17  -1.35647765987839E-05  -2.34122756400001E-17   2.26000000000000E-01   2.26000000000000E-01
      0.00000000000000E+00   0.00000000000000E+00   1.35647765987718E-05   1.20795496573683E-17   1.35647765987839E-05
      2.34122756400001E-17
      1.60000000000000E-01
      0.00000000000000E+00   0.00000000000000E+00   0.00000000000000E+00   0.00000000000000E+00  -1.37967901232374E-05
     -1.24714191440898E-17  -1.37967901232499E-05  -2.52769701600002E-17   2.44000000000000E-01   2.44000000000000E-01
      0.00000000000000E+00   0.00000000000000E+00   1.37967901232374E-05   1.24714191440898E-17   1.37967901232499E-05
      2.52769701600001E-17
      1.80000000000000E-01
      0.00000000000000E+00   0.00000000000000E+00   0.00000000000000E+00   0.00000000000000E+00  -1.40020714796117E-05
     -1.28270169184524E-17  -1.40020714796245E-05  -2.71416646800002E-17   2.62000000000000E-01   2.62000000000000E-01
      0.00000000000000E+00   0.00000000000000E+00   1.40020714796117E-05   1.28270169184524E-17   1.40020714796245E-05
      2.71416646800002E-17
      2.00000000000000E-01
      0.00000000000000E+00   0.00000000000000E+00   0.00000000000000E+00   0.00000000000000E+00  -1.41848924631703E-05
     -1.31508436224565E-17  -1.41848924631835E-05  -2.90063592000000E-17   2.80000000000000E-01   2.80000000000000E-01
      0.00000000000000E+00   0.00000000000000E+00   1.41848924631703E-05   1.31508436224565E-17   1.41848924631835E-05
      2.90063591999999E-17
      2.20000000000000E-01
      0.00000000000000E+00   0.00000000000000E+00   0.00000000000000E+00   0.00000000000000E+00  -1.43486720663693E-05
     -1.34467213510929E-17  -1.43486720663828E-05  -3.08710537200001E-17   2.98000000000000E-01   2.98000000000000E-01
      0.00000000000000E+00   0.00000000000000E+00   1.43486720663693E-05   1.34467213510929E-17   1.43486720663828E-05
      3.08710537200000E-17
      2.40000000000000E-01
      0.00000000000000E+00   0.00000000000000E+00   0.00000000000000E+00   0.00000000000000E+00  -1.44961773050235E-05
     -1.37179108728847E-17  -1.44961773050372E-05  -3.27357482399998E-17   3.16000000000000E-01   3.16000000000000E-01
      0.00000000000000E+00   0.00000000000000E+00   1.44961773050235E-05   1.37179108728847E-17   1.44961773050372E-05
      3.27357482399998E-17
      2.60000000000000E-01
      0.00000000000000E+00   0.00000000000000E+00   0.00000000000000E+00   0.00000000000000E+00  -1.46296702335413E-05
     -1.39672066272427E-17  -1.46296702335552E-05  -3.46004427600002E-17   3.34000000000000E-01   3.34000000000000E-01
      0.00000000000000E+00   0.00000000000000E+00   1.46296702335413E-05   1.39672066272427E-17   1.46296702335552E-05
      3.46004427600002E-17
      2.80000000000000E-01
      0.00000000000000E+00   0.00000000000000E+00   0.00000000000000E+00   0.00000000000000E+00  -1.47510171566520E-05
     -1.41970139400736E-17  -1.47510171566662E-05  -3.64651372800000E-17   3.52000000000000E-01   3.52000000000000E-01
      0.00000000000000E+00   0.00000000000000E+00   1.47510171566520E-05   1.41970139400736E-17   1.47510171566662E-05
      3.64651372799999E-17
      3.00000000000000E-01
      0.00000000000000E+00   0.00000000000000E+00   0.00000000000000E+00   0.00000000000000E+00  -1.48617708514800E-05
     -1.44094120106056E-17  -1.48617708514944E-05  -3.83298318000000E-17   3.70000000000000E-01   3.70000000000000E-01
      0.00000000000000E+00   0.00000000000000E+00   1.48617708514800E-05   1.44094120106056E-17   1.48617708514944E-05
      3.83298318000000E-17
      3.20000000000000E-01
      0.00000000000000E+00   0.00000000000000E+00   0.00000000000000E+00   0.00000000000000E+00  -1.49632332336893E-05
     -1.46062054942071E-17  -1.49632332337039E-05  -4.01945263200001E-17   3.88000000000000E-01   3.88000000000000E-01
      0.00000000000000E+00   0.00000000000000E+00   1.49632332336893E-05   1.46062054942071E-17   1.49632332337039E-05
      4.01945263200000E-17
      3.40000000000000E-01
      0.00000000000000E+00   0.00000000000000E+00   0.00000000000000E+00   0.00000000000000E+00  -1.50565036603173E-05
     -1.47889669213689E-17  -1.50565036603321E-05  -4.20592208400001E-17   4.06000000000000E-01   4.06000000000000E-01
      0.00000000000000E+00   0.00000000000000E+00   1.50565036603173E-05   1.47889669213689E-17   1.50565036603321E-05
      4.20592208400001E-17
      3.60000000000000E-01
      0.00000000000000E+00   0.00000000000000E+00   0.00000000000000E+00   0.00000000000000E+00  -1.51425165504248E-05
     -1.49590717290334E-17  -1.51425165504397E-05  -4.39239153600000E-17   4.24000000000000E-01   4.24000000000000E-01
      0.00000000000000E+00   0.00000000000000E+00   1.51425165504248E-05   1.49590717290334E-17   1.51425165504397E-05
      4.39239153599999E-17
      3.80000000000000E-01
      0.00000000000000E+00   0.00000000000000E+00   0.00000000000000E+00   0.00000000000000E+00  -1.52220709688557E-05
     -1.51177273144110E-17  -1.52220709688708E-05  -4.57886098800001E-17   4.42000000000000E-01   4.42000000000000E-01
      0.00000000000000E+00   0.00000000000000E+00   1.52220709688557E-05   1.51177273144110E-17   1.52220709688708E-05
      4.57886098800000E-17
      4.00000000000000E-01
      0.00000000000000E+00   0.00000000000000E+00   0.00000000000000E+00   0.00000000000000E+00  -1.52958540983040E-05
     -1.52659972333827E-17  -1.52958540983193E-05  -4.76533044000000E-17   4.60000000000000E-01   4.60000000000000E-01
      0.00000000000000E+00   0.00000000000000E+00   1.52958540983040E-05   1.52659972333827E-17   1.52958540983193E-05
      4.76533044000000E-17
      4.20000000000000E-01
      0.00000000000000E+00   0.00000000000000E+00   0.00000000000000E+00   0.00000000000000E+00  -1.53644600172071E-05
     -1.54048214390284E-17  -1.53644600172225E-05  -4.95179989200001E-17   4.78000000000000E-01   4.78000000000000E-01
      0.00000000000000E+00   0.00000000000000E+00   1.53644600172071E-05   1.54048214390284E-17   1.53644600172225E-05
      4.95179989200000E-17
      4.40000000000000E-01
      0.00000000000000E+00   0.00000000000000E+00   0.00000000000000E+00   0.00000000000000E+00  -1.54284048387034E-05
     -1.55350332774141E-17  -1.54284048387189E-05  -5.13826934399998E-17   4.96000000000000E-01   4.96000000000000E-01
      0.00000000000000E+00   0.00000000000000E+00   1.54284048387034E-05   1.55350332774141E-17   1.54284048387189E-05
      5.13826934399998E-17
      4.60000000000000E-01
      0.00000000000000E+00   0.00000000000000E+00   0.00000000000000E+00   0.00000000000000E+00  -1.54881390041613E-05
     -1.56573738170315E-17  -1.54881390041769E-05  -5.32473879600001E-17   5.14000000000000E-01   5.14000000000000E-01
      0.00000000000000E+00   0.00000000000000E+00   1.54881390041613E-05   1.56573738170315E-17   1.54881390041769E-05
      5.32473879600000E-17
      4.80000000000000E-01
      0.00000000000000E+00   0.00000000000000E+00   0.00000000000000E+00   0.00000000000000E+00  -1.55440573337115E-05
     -1.57725039769131E-17  -1.55440573337273E-05  -5.51120824800000E-17   5.32000000000000E-01   5.32000000000000E-01
      0.00000000000000E+00   0.00000000000000E+00   1.55440573337115E-05   1.57725039769131E-17   1.55440573337273E-05
      5.51120824800000E-17
      5.00000000000000E-01
      0.00000000000000E+00   0.00000000000000E+00   0.00000000000000E+00   0.00000000000000E+00  -1.55965072952005E-05
     -1.58810148300825E-17  -1.55965072952164E-05  -5.69767770000002E-17   5.50000000000000E-01   5.50000000000000E-01
      0.00000000000000E+00   0.00000000000000E+00   1.55965072952005E-05   1.58810148300825E-17   1.55965072952164E-05
      5.69767770000001E-17
      5.20000000000000E-01
      0.00000000000000E+00   0.00000000000000E+00   0.00000000000000E+00   0.00000000000000E+00  -1.56457958479985E-05
     -1.59834363886101E-17  -1.56457958480145E-05  -5.88414715200000E-17   5.68000000000000E-01   5.68000000000000E-01
      0.00000000000000E+00   0.00000000000000E+00   1.56457958479985E-05   1.59834363886101E-17   1.56457958480145E-05
      5.88414715200000E-17
      5.40000000000000E-01
      0.00000000000000E+00   0.00000000000000E+00   0.00000000000000E+00   0.00000000000000E+00  -1.56921951390584E-05
     -1.60802451203089E-17  -1.56921951390745E-05  -6.07061660400001E-17   5.86000000000000E-01   5.86000000000000E-01
      0.00000000000000E+00   0.00000000000000E+00   1.56921951390584E-05   1.60802451203089E-17   1.56921951390745E-05
      6.07061660400001E-17
      5.60000000000000E-01
      0.00000000000000E+00   0.00000000000000E+00   0.00000000000000E+00   0.00000000000000E+00  -1.57359472688532E-05
     -1.61718704019714E-17  -1.57359472688694E-05  -6.25708605599999E-17   6.04000000000000E-01   6.04000000000000E-01
      0.00000000000000E+00   0.00000000000000E+00   1.57359472688532E-05   1.61718704019714E-17   1.57359472688694E-05
      6.25708605599999E-17
      5.80000000000000E-01
      0.00000000000000E+00   0.00000000000000E+00   0.00000000000000E+00   0.00000000000000E+00  -1.57772682990254E-05
     -1.62587000777219E-17  -1.57772682990417E-05  -6.44355550800000E-17   6.22000000000000E-01   6.22000000000000E-01
      0.00000000000000E+00   0.00000000000000E+00   1.57772682990254E-05   1.62587000777219E-17   1.57772682990417E-05
      6.44355550799999E-17
      6.00000000000000E-01
      0.00000000000000E+00   0.00000000000000E+00   0.00000000000000E+00   0.00000000000000E+00  -1.58163516382976E-05
     -1.63410852616792E-17  -1.58163516383139E-05  -6.63002496000001E-17   6.40000000000000E-01   6.40000000000000E-01
      0.00000000000000E+00   0.00000000000000E+00   1.58163516382976E-05   1.63410852616792E-17   1.58163516383139E-05
      6.63002496000000E-17
      6.20000000000000E-01
      0.00000000000000E+00   0.00000000000000E+00   0.00000000000000E+00   0.00000000000000E+00  -1.58533709159707E-05
     -1.64193445003040E-17  -1.58533709159872E-05  -6.81649441200001E-17   6.58000000000000E-01   6.58000000000000E-01
      0.00000000000000E+00   0.00000000000000E+00   1.58533709159707E-05   1.64193445003040E-17   1.58533709159872E-05
      6.81649441200001E-17
      6.40000000000000E-01
      0.00000000000000E+00   0.00000000000000E+00   0.00000000000000E+00   0.00000000000000E+00  -1.58884824309077E-05
     -1.64937673903884E-17  -1.58884824309242E-05  -7.00296386400001E-17   6.76000000000000E-01   6.76000000000000E-01
      0.00000000000000E+00   0.00000000000000E+00   1.58884824309077E-05   1.64937673903884E-17   1.58884824309242E-05
      7.00296386400001E-17
      6.60000000000000E-01
      0.00000000000000E+00   0.00000000000000E+00   0.00000000000000E+00   0.00000000000000E+00  -1.59218272471202E-05
     -1.65646177327927E-17  -1.59218272471368E-05  -7.18943331600001E-17   6.94000000000000E-01   6.94000000000000E-01
      0.00000000000000E+00   0.00000000000000E+00   1.59218272471202E-05   1.65646177327927E-17   1.59218272471368E-05
      7.18943331600000E-17
      6.80000000000000E-01
      0.00000000000000E+00   0.00000000000000E+00   0.00000000000000E+00   0.00000000000000E+00  -1.59535329939087E-05
     -1.66321362890112E-17  -1.59535329939254E-05  -7.37590276800001E-17   7.12000000000000E-01   7.12000000000000E-01
      0.00000000000000E+00   0.00000000000000E+00   1.59535329939087E-05   1.66321362890112E-17   1.59535329939254E-05
      7.37590276800000E-17
      7.00000000000000E-01
      0.00000000000000E+00   0.00000000000000E+00   0.00000000000000E+00   0.00000000000000E+00  -1.59837154177857E-05
     -1.66965431969430E-17  -1.59837154178024E-05  -7.56237222000001E-17   7.30000000000000E-01   7.30000000000000E-01
      0.00000000000000E+00   0.00000000000000E+00   1.59837154177857E-05   1.66965431969430E-17   1.59837154178024E-05
      7.56237222000001E-17
      7.20000000000000E-01
      0.00000000000000E+00   0.00000000000000E+00   0.00000000000000E+00   0.00000000000000E+00  -1.60124797251337E-05
     -1.67580400933896E-17  -1.60124797251504E-05  -7.74884167200001E-17   7.48000000000000E-01   7.48000000000000E-01
      0.00000000000000E+00   0.00000000000000E+00   1.60124797251337E-05   1.67580400933896E-17   1.60124797251504E-05
      7.74884167200000E-17
      7.40000000000000E-01
      0.00000000000000E+00   0.00000000000000E+00   0.00000000000000E+00   0.00000000000000E+00  -1.60399217476611E-05
     -1.68168119834690E-17  -1.60399217476779E-05  -7.93531112400002E-17   7.66000000000000E-01   7.66000000000000E-01
      0.00000000000000E+00   0.00000000000000E+00   1.60399217476611E-05   1.68168119834690E-17   1.60399217476779E-05
      7.93531112400000E-17
      7.60000000000000E-01
      0.00000000000000E+00   0.00000000000000E+00   0.00000000000000E+00   0.00000000000000E+00  -1.60661289572494E-05
     -1.68730288910319E-17  -1.60661289572663E-05  -8.12178057600001E-17   7.84000000000000E-01   7.84000000000000E-01
      0.00000000000000E+00   0.00000000000000E+00   1.60661289572494E-05   1.68730288910319E-17   1.60661289572663E-05
      8.12178057600001E-17
      7.80000000000000E-01
      0.00000000000000E+00   0.00000000000000E+00   0.00000000000000E+00   0.00000000000000E+00  -1.60911813523597E-05
     -1.69268473190762E-17  -1.60911813523767E-05  -8.30825002800002E-17   8.02000000000000E-01   8.02000000000000E-01
      0.00000000000000E+00   0.00000000000000E+00   1.60911813523597E-05   1.69268473190762E-17   1.60911813523767E-05
      8.30825002800000E-17
      8.00000000000000E-01
      0.00000000000000E+00   0.00000000000000E+00   0.00000000000000E+00   0.00000000000000E+00  -1.61151522344910E-05
     -1.69784115449040E-17  -1.61151522345080E-05  -8.49471948000001E-17   8.20000000000000E-01   8.20000000000000E-01
      0.00000000000000E+00   0.00000000000000E+00   1.61151522344910E-05   1.69784115449040E-17   1.61151522345080E-05
      8.49471948000000E-17
      8.20000000000000E-01
      0.00000000000000E+00   0.00000000000000E+00   0.00000000000000E+00   0.00000000000000E+00  -1.61381088902373E-05
     -1.70278547711829E-17  -1.61381088902543E-05  -8.68118893200002E-17   8.38000000000000E-01   8.38000000000000E-01
      0.00000000000000E+00   0.00000000000000E+00   1.61381088902373E-05   1.70278547711829E-17   1.61381088902543E-05
      8.68118893200001E-17
      8.40000000000000E-01
      0.00000000000000E+00   0.00000000000000E+00   0.00000000000000E+00   0.00000000000000E+00  -1.61601131920184E-05
     -1.70753001510583E-17  -1.61601131920355E-05  -8.86765838400003E-17   8.56000000000000E-01   8.56000000000000E-01
      0.00000000000000E+00   0.00000000000000E+00   1.61601131920184E-05   1.70753001510583E-17   1.61601131920355E-05
      8.86765838400002E-17
      8.60000000000000E-01
      0.00000000000000E+00   0.00000000000000E+00   0.00000000000000E+00   0.00000000000000E+00  -1.61812221285424E-05
     -1.71208617029355E-17  -1.61812221285596E-05  -9.05412783600002E-17   8.74000000000000E-01   8.74000000000000E-01
      0.00000000000000E+00   0.00000000000000E+00   1.61812221285424E-05   1.71208617029355E-17   1.61812221285596E-05
      9.05412783600001E-17
      8.80000000000000E-01
      0.00000000000000E+00   0.00000000000000E+00   0.00000000000000E+00   0.00000000000000E+00  -1.62014882743557E-05
     -1.71646451283962E-17  -1.62014882743729E-05  -9.24059728800002E-17   8.92000000000000E-01   8.92000000000000E-01
      0.00000000000000E+00   0.00000000000000E+00   1.62014882743557E-05   1.71646451283962E-17   1.62014882743729E-05
      9.24059728800001E-17
      9.00000000000000E-01
      0.00000000000000E+00   0.00000000000000E+00   0.00000000000000E+00   0.00000000000000E+00  -1.62209602064939E-05
     -1.72067485448686E-17  -1.62209602065111E-05  -9.42706674000001E-17   9.10000000000000E-01   9.10000000000000E-01
      0.00000000000000E+00   0.00000000000000E+00   1.62209602064939E-05   1.72067485448686E-17   1.62209602065111E-05
      9.42706673999999E-17
      9.20000000000000E-01
      0.00000000000000E+00   0.00000000000000E+00   0.00000000000000E+00   0.00000000000000E+00  -1.62396828750148E-05
     -1.72472631431443E-17  -1.62396828750320E-05  -9.61353619200003E-17   9.28000000000000E-01   9.28000000000000E-01
      0.00000000000000E+00   0.00000000000000E+00   1.62396828750148E-05   1.72472631431443E-17   1.62396828750320E-05
      9.61353619200001E-17
      9.40000000000001E-01