DF-ISE text

Info {
  version   = 1.0
  type      = xyplot
  datasets  = [
    "time"
    "n1contact OuterVoltage" "n1contact InnerVoltage" "n1contact QuasiFermiPotential" "n1contact DisplacementCurrent" "n1contact eCurrent"
    "n1contact hCurrent" "n1contact TotalCurrent" "n1contact Charge" "n2contact OuterVoltage" "n2contact InnerVoltage"
    "n2contact QuasiFermiPotential" "n2contact DisplacementCurrent" "n2contact eCurrent" "n2contact hCurrent" "n2contact TotalCurrent"
    "n2contact Charge" ]
  functions = [
    Time
    OuterVoltage InnerVoltage QuasiFermiPotential DisplacementCurrent eCurrent
    hCurrent TotalCurrent Charge OuterVoltage InnerVoltage
    QuasiFermiPotential DisplacementCurrent eCurrent hCurrent TotalCurrent
    Charge ]
}

Data {
      0.00000000000000E+00
      0.00000000000000E+00   0.00000000000000E+00   0.00000000000000E+00   0.00000000000000E+00   3.86733673210316E-38
     -3.86733673210316E-38   0.00000000000000E+00   0.00000000000000E+00   0.00000000000000E+00   0.00000000000000E+00
      0.00000000000000E+00   0.00000000000000E+00   3.63116349655489E-38  -3.63116349655489E-38   0.00000000000000E+00
      0.00000000000000E+00
      0.00000000000000E+00
      0.00000000000000E+00   0.00000000000000E+00   0.00000000000000E+00   0.00000000000000E+00   3.86733673210316E-38
     -3.86733673210316E-38   0.00000000000000E+00   0.00000000000000E+00   0.00000000000000E+00   0.00000000000000E+00
      0.00000000000000E+00   0.00000000000000E+00   3.63116349655489E-38  -3.63116349655489E-38   0.00000000000000E+00
      0.00000000000000E+00
      0.00000000000000E+00
      0.00000000000000E+00   0.00000000000000E+00   0.00000000000000E+00   0.00000000000000E+00   3.86733673210316E-38
     -3.86733673210316E-38   0.00000000000000E+00   0.00000000000000E+00   0.00000000000000E+00   0.00000000000000E+00
      0.00000000000000E+00   0.00000000000000E+00   3.63116349655489E-38  -3.63116349655489E-38   0.00000000000000E+00
      0.00000000000000E+00
      1.00000000000000E-01
      0.00000000000000E+00   0.00000000000000E+00   0.00000000000000E+00   0.00000000000000E+00  -1.88543776138029E-07
     -9.71816957945253E-20  -1.88543776138126E-07  -1.03594140000054E-19   1.00000000000000E-03   1.00000000000000E-03
      0.00000000000000E+00   0.00000000000000E+00   1.88543776138029E-07   9.71816957945253E-20   1.88543776138126E-07
      1.03594140000054E-19
      2.00000000000000E-01
      0.00000000000000E+00   0.00000000000000E+00   0.00000000000000E+00   0.00000000000000E+00  -3.77087552275812E-07
     -1.94363391588856E-19  -3.77087552276007E-07  -2.07188279999956E-19   2.00000000000000E-03   2.00000000000000E-03
      0.00000000000000E+00   0.00000000000000E+00   3.77087552275812E-07   1.94363391588856E-19   3.77087552276007E-07
      2.07188279999956E-19
      3.00000000000000E-01
      0.00000000000000E+00   0.00000000000000E+00   0.00000000000000E+00   0.00000000000000E+00  -5.65631328413827E-07
     -2.91545087383399E-19  -5.65631328414119E-07  -3.10782420000011E-19   3.00000000000000E-03   3.00000000000000E-03
      0.00000000000000E+00   0.00000000000000E+00   5.65631328413827E-07   2.91545087383399E-19   5.65631328414119E-07
      3.10782420000011E-19
      4.00000000000000E-01
      0.00000000000000E+00   0.00000000000000E+00   0.00000000000000E+00   0.00000000000000E+00  -7.54175104551877E-07
     -3.88726783177925E-19  -7.54175104552266E-07  -4.14376560000065E-19   4.00000000000000E-03   4.00000000000000E-03
      0.00000000000000E+00   0.00000000000000E+00   7.54175104551877E-07   3.88726783177925E-19   7.54175104552266E-07
      4.14376560000065E-19
      5.00000000000000E-01
      0.00000000000000E+00   0.00000000000000E+00   0.00000000000000E+00   0.00000000000000E+00  -9.42718880689632E-07
     -4.85908478972273E-19  -9.42718880690117E-07  -5.17970699999967E-19   5.00000000000000E-03   5.00000000000000E-03
      0.00000000000000E+00   0.00000000000000E+00   9.42718880689632E-07   4.85908478972273E-19   9.42718880690117E-07
      5.17970699999966E-19
      6.00000000000000E-01
      0.00000000000000E+00   0.00000000000000E+00   0.00000000000000E+00   0.00000000000000E+00  -1.13126265682768E-06
     -5.83090174766816E-19  -1.13126265682826E-06  -6.21564840000022E-19   6.00000000000000E-03   6.00000000000000E-03
      0.00000000000000E+00   0.00000000000000E+00   1.13126265682768E-06   5.83090174766816E-19   1.13126265682826E-06
      6.21564840000021E-19
      7.00000000000000E-01
      0.00000000000000E+00   0.00000000000000E+00   0.00000000000000E+00   0.00000000000000E+00  -1.31980643296573E-06
     -6.80271870561288E-19  -1.31980643296641E-06  -7.25158980000076E-19   7.00000000000000E-03   7.00000000000000E-03
      0.00000000000000E+00   0.00000000000000E+00   1.31980643296573E-06   6.80271870561288E-19   1.31980643296641E-06
      7.25158980000075E-19
      8.00000000000000E-01
      0.00000000000000E+00   0.00000000000000E+00   0.00000000000000E+00   0.00000000000000E+00  -1.50835020910351E-06
     -7.77453566355672E-19  -1.50835020910429E-06  -8.28753119999977E-19   8.00000000000000E-03   8.00000000000000E-03
      0.00000000000000E+00   0.00000000000000E+00   1.50835020910351E-06   7.77453566355672E-19   1.50835020910429E-06
      8.28753119999977E-19
      9.00000000000000E-01
      0.00000000000000E+00   0.00000000000000E+00   0.00000000000000E+00   0.00000000000000E+00  -1.69689398524154E-06
     -8.74635262150216E-19  -1.69689398524241E-06  -9.32347260000031E-19   9.00000000000000E-03   9.00000000000000E-03
      0.00000000000000E+00   0.00000000000000E+00   1.69689398524154E-06   8.74635262150216E-19   1.69689398524241E-06
      9.32347260000031E-19
      1.00000000000000E+00
      0.00000000000000E+00   0.00000000000000E+00   0.00000000000000E+00   0.00000000000000E+00  -1.88543776137959E-06
     -9.71816957944706E-19  -1.88543776138056E-06  -1.03594140000009E-18   1.00000000000000E-02   1.00000000000000E-02
      0.00000000000000E+00   0.00000000000000E+00   1.88543776137959E-06   9.71816957944706E-19   1.88543776138056E-06
      1.03594140000009E-18
      0.00000000000000E+00
      0.00000000000000E+00   0.00000000000000E+00   0.00000000000000E+00   0.00000000000000E+00  -1.88543776137929E-06
     -9.71816957944564E-19  -1.88543776138026E-06  -1.03594139999993E-18   1.00000000000000E-02   1.00000000000000E-02
      0.00000000000000E+00   0.00000000000000E+00   1.88543776137929E-06   9.71816957944564E-19   1.88543776138026E-06
      1.03594139999993E-18
      1.00000000000000E-01
      0.00000000000000E+00   0.00000000000000E+00   0.00000000000000E+00   0.00000000000000E+00  -3.58233174662086E-06
     -1.84645222009475E-18  -3.58233174662271E-06  -1.96828865999997E-18   1.90000000000000E-02   1.90000000000000E-02
      0.00000000000000E+00   0.00000000000000E+00   3.58233174662086E-06   1.84645222009475E-18   3.58233174662271E-06
      1.96828865999996E-18
      2.00000000000000E-01
      0.00000000000000E+00   0.00000000000000E+00   0.00000000000000E+00   0.00000000000000E+00  -5.27922573186236E-06
     -2.72108748224493E-18  -5.27922573186508E-06  -2.90063592000000E-18   2.80000000000000E-02   2.80000000000000E-02
      0.00000000000000E+00   0.00000000000000E+00   5.27922573186236E-06   2.72108748224493E-18   5.27922573186508E-06
      2.90063592000000E-18
      3.00000000000000E-01
      0.00000000000000E+00   0.00000000000000E+00   0.00000000000000E+00   0.00000000000000E+00  -6.97611971710390E-06
     -3.59572274439514E-18  -6.97611971710749E-06  -3.83298318000002E-18   3.70000000000000E-02   3.70000000000000E-02
      0.00000000000000E+00   0.00000000000000E+00   6.97611971710390E-06   3.59572274439514E-18   6.97611971710749E-06
      3.83298318000003E-18
      4.00000000000000E-01
      0.00000000000000E+00   0.00000000000000E+00   0.00000000000000E+00   0.00000000000000E+00  -8.67301370234541E-06
     -4.47035800654533E-18  -8.67301370234988E-06  -4.76533044000006E-18   4.60000000000000E-02   4.60000000000000E-02
      0.00000000000000E+00   0.00000000000000E+00   8.67301370234541E-06   4.47035800654533E-18   8.67301370234988E-06
      4.76533044000006E-18
      5.00000000000000E-01
      0.00000000000000E+00   0.00000000000000E+00   0.00000000000000E+00   0.00000000000000E+00  -1.03699076875867E-05
     -5.34499326869537E-18  -1.03699076875920E-05  -5.69767769999994E-18   5.50000000000000E-02   5.50000000000000E-02
      0.00000000000000E+00   0.00000000000000E+00   1.03699076875867E-05   5.34499326869537E-18   1.03699076875920E-05
      5.69767769999994E-18
      6.00000000000000E-01
      0.00000000000000E+00   0.00000000000000E+00   0.00000000000000E+00   0.00000000000000E+00  -1.20668016728285E-05
     -6.21962853084570E-18  -1.20668016728347E-05  -6.63002496000012E-18   6.40000000000000E-02   6.40000000000000E-02
      0.00000000000000E+00   0.00000000000000E+00   1.20668016728285E-05   6.21962853084570E-18   1.20668016728347E-05
      6.63002496000013E-18
      7.00000000000000E-01
      0.00000000000000E+00   0.00000000000000E+00   0.00000000000000E+00   0.00000000000000E+00  -1.37636956580698E-05
     -7.09426379299571E-18  -1.37636956580769E-05  -7.56237221999999E-18   7.30000000000000E-02   7.30000000000000E-02
      0.00000000000000E+00   0.00000000000000E+00   1.37636956580698E-05   7.09426379299571E-18   1.37636956580769E-05
      7.56237222000000E-18
      8.00000000000000E-01
      0.00000000000000E+00   0.00000000000000E+00   0.00000000000000E+00   0.00000000000000E+00  -1.54605896433113E-05
     -7.96889905514597E-18  -1.54605896433192E-05  -8.49471948000003E-18   8.20000000000000E-02   8.20000000000000E-02
      0.00000000000000E+00   0.00000000000000E+00   1.54605896433113E-05   7.96889905514597E-18   1.54605896433192E-05
      8.49471948000004E-18
      9.00000000000000E-01
      0.00000000000000E+00   0.00000000000000E+00   0.00000000000000E+00   0.00000000000000E+00  -1.71574836285528E-05
     -8.84353431729611E-18  -1.71574836285617E-05  -9.42706674000007E-18   9.10000000000000E-02   9.10000000000000E-02
      0.00000000000000E+00   0.00000000000000E+00   1.71574836285528E-05   8.84353431729611E-18   1.71574836285617E-05
      9.42706674000006E-18
      1.00000000000000E+00
      0.00000000000000E+00   0.00000000000000E+00   0.00000000000000E+00   0.00000000000000E+00  -1.88543776137944E-05
     -9.71816957944625E-18  -1.88543776138041E-05  -1.03594140000001E-17   1.00000000000000E-01   1.00000000000000E-01
      0.00000000000000E+00   0.00000000000000E+00   1.88543776137944E-05   9.71816957944625E-18   1.88543776138041E-05
      1.03594140000001E-17
      0.00000000000000E+00
      0.00000000000000E+00   0.00000000000000E+00   0.00000000000000E+00   0.00000000000000E+00  -1.88543776137941E-05
     -9.71816957944614E-18  -1.88543776138038E-05  -1.03594140000000E-17   1.00000000000000E-01   1.00000000000000E-01
      0.00000000000000E+00   0.00000000000000E+00   1.88543776137941E-05   9.71816957944614E-18   1.88543776138038E-05
      1.03594139999999E-17
      2.00000000000000E-02
      0.00000000000000E+00   0.00000000000000E+00   0.00000000000000E+00   0.00000000000000E+00  -2.22481655842774E-05
     -1.14674401037467E-17  -2.22481655842889E-05  -1.22241085200002E-17   1.18000000000000E-01   1.18000000000000E-01
      0.00000000000000E+00   0.00000000000000E+00   2.22481655842774E-05   1.14674401037467E-17   2.22481655842889E-05
      1.22241085200002E-17
      4.00000000000000E-02
      0.00000000000000E+00   0.00000000000000E+00   0.00000000000000E+00   0.00000000000000E+00  -2.56419535547602E-05
     -1.32167106280469E-17  -2.56419535547734E-05  -1.40888030400001E-17   1.36000000000000E-01   1.36000000000000E-01
      0.00000000000000E+00   0.00000000000000E+00   2.56419535547602E-05   1.32167106280469E-17   2.56419535547734E-05
      1.40888030400001E-17
      6.00000000000000E-02
      0.00000000000000E+00   0.00000000000000E+00   0.00000000000000E+00   0.00000000000000E+00  -2.90357415252433E-05
     -1.49659811523473E-17  -2.90357415252583E-05  -1.59534975600001E-17   1.54000000000000E-01   1.54000000000000E-01
      0.00000000000000E+00   0.00000000000000E+00   2.90357415252433E-05   1.49659811523473E-17   2.90357415252583E-05
      1.59534975600001E-17
      8.00000000000000E-02
      0.00000000000000E+00   0.00000000000000E+00   0.00000000000000E+00   0.00000000000000E+00  -3.24295294957258E-05
     -1.67152516766474E-17  -3.24295294957425E-05  -1.78181920799999E-17   1.72000000000000E-01   1.72000000000000E-01
      0.00000000000000E+00   0.00000000000000E+00   3.24295294957258E-05   1.67152516766474E-17   3.24295294957425E-05
      1.78181920799999E-17
      1.00000000000000E-01
      0.00000000000000E+00   0.00000000000000E+00   0.00000000000000E+00   0.00000000000000E+00  -3.58233174662089E-05
     -1.84645222009478E-17  -3.58233174662273E-05  -1.96828866000000E-17   1.90000000000000E-01   1.90000000000000E-01
      0.00000000000000E+00   0.00000000000000E+00   3.58233174662089E-05   1.84645222009478E-17   3.58233174662273E-05
      1.96828866000000E-17
      1.20000000000000E-01
      0.00000000000000E+00   0.00000000000000E+00   0.00000000000000E+00   0.00000000000000E+00  -3.92171054366919E-05
     -2.02137927252481E-17  -3.92171054367121E-05  -2.15475811200000E-17   2.08000000000000E-01   2.08000000000000E-01
      0.00000000000000E+00   0.00000000000000E+00   3.92171054366919E-05   2.02137927252481E-17   3.92171054367121E-05
      2.15475811200000E-17
      1.40000000000000E-01
      0.00000000000000E+00   0.00000000000000E+00   0.00000000000000E+00   0.00000000000000E+00  -4.26108934071750E-05
     -2.19630632495484E-17  -4.26108934071969E-05  -2.34122756400001E-17   2.26000000000000E-01   2.26000000000000E-01
      0.00000000000000E+00   0.00000000000000E+00   4.26108934071750E-05   2.19630632495484E-17   4.26108934071969E-05
      2.34122756400001E-17
      1.60000000000000E-01
      0.00000000000000E+00   0.00000000000000E+00   0.00000000000000E+00   0.00000000000000E+00  -4.60046813776575E-05
     -2.37123337738486E-17  -4.60046813776812E-05  -2.52769701599999E-17   2.44000000000000E-01   2.44000000000000E-01
      0.00000000000000E+00   0.00000000000000E+00   4.60046813776575E-05   2.37123337738486E-17   4.60046813776812E-05
      2.52769701599998E-17
      1.80000000000000E-01
      0.00000000000000E+00   0.00000000000000E+00   0.00000000000000E+00   0.00000000000000E+00  -4.93984693481405E-05
     -2.54616042981488E-17  -4.93984693481659E-05  -2.71416646799999E-17   2.62000000000000E-01   2.62000000000000E-01
      0.00000000000000E+00   0.00000000000000E+00   4.93984693481405E-05   2.54616042981488E-17   4.93984693481659E-05
      2.71416646799999E-17
      2.00000000000000E-01
      0.00000000000000E+00   0.00000000000000E+00   0.00000000000000E+00   0.00000000000000E+00  -5.27922573186241E-05
     -2.72108748224497E-17  -5.27922573186514E-05  -2.90063592000003E-17   2.80000000000000E-01   2.80000000000000E-01
      0.00000000000000E+00   0.00000000000000E+00   5.27922573186241E-05   2.72108748224497E-17   5.27922573186514E-05
      2.90063592000003E-17
      2.20000000000000E-01
      0.00000000000000E+00   0.00000000000000E+00   0.00000000000000E+00   0.00000000000000E+00  -5.61860452891067E-05
     -2.89601453467496E-17  -5.61860452891357E-05  -3.08710537200000E-17   2.98000000000000E-01   2.98000000000000E-01
      0.00000000000000E+00   0.00000000000000E+00   5.61860452891067E-05   2.89601453467496E-17   5.61860452891357E-05
      3.08710537200000E-17
      2.40000000000000E-01
      0.00000000000000E+00   0.00000000000000E+00   0.00000000000000E+00   0.00000000000000E+00  -5.95798332595897E-05
     -3.07094158710502E-17  -5.95798332596204E-05  -3.27357482400001E-17   3.16000000000000E-01   3.16000000000000E-01
      0.00000000000000E+00   0.00000000000000E+00   5.95798332595897E-05   3.07094158710502E-17   5.95798332596204E-05
      3.27357482400001E-17
      2.60000000000000E-01
      0.00000000000000E+00   0.00000000000000E+00   0.00000000000000E+00   0.00000000000000E+00  -6.29736212300722E-05
     -3.24586863953500E-17  -6.29736212301047E-05  -3.46004427599998E-17   3.34000000000000E-01   3.34000000000000E-01
      0.00000000000000E+00   0.00000000000000E+00   6.29736212300722E-05   3.24586863953500E-17   6.29736212301047E-05
      3.46004427599998E-17
      2.80000000000000E-01
      0.00000000000000E+00   0.00000000000000E+00   0.00000000000000E+00   0.00000000000000E+00  -6.63674092005558E-05
     -3.42079569196509E-17  -6.63674092005900E-05  -3.64651372800002E-17   3.52000000000000E-01   3.52000000000000E-01
      0.00000000000000E+00   0.00000000000000E+00   6.63674092005558E-05   3.42079569196509E-17   6.63674092005900E-05
      3.64651372800002E-17
      3.00000000000000E-01
      0.00000000000000E+00   0.00000000000000E+00   0.00000000000000E+00   0.00000000000000E+00  -6.97611971710383E-05
     -3.59572274439510E-17  -6.97611971710743E-05  -3.83298318000000E-17   3.70000000000000E-01   3.70000000000000E-01
      0.00000000000000E+00   0.00000000000000E+00   6.97611971710383E-05   3.59572274439510E-17   6.97611971710743E-05
      3.83298318000000E-17
      3.20000000000000E-01
      0.00000000000000E+00   0.00000000000000E+00   0.00000000000000E+00   0.00000000000000E+00  -7.31549851415215E-05
     -3.77064979682511E-17  -7.31549851415592E-05  -4.01945263200001E-17   3.88000000000000E-01   3.88000000000000E-01
      0.00000000000000E+00   0.00000000000000E+00   7.31549851415215E-05   3.77064979682511E-17   7.31549851415592E-05
      4.01945263200000E-17
      3.40000000000000E-01
      0.00000000000000E+00   0.00000000000000E+00   0.00000000000000E+00   0.00000000000000E+00  -7.65487731120045E-05
     -3.94557684925518E-17  -7.65487731120439E-05  -4.20592208400001E-17   4.06000000000000E-01   4.06000000000000E-01
      0.00000000000000E+00   0.00000000000000E+00   7.65487731120045E-05   3.94557684925518E-17   7.65487731120439E-05
      4.20592208400001E-17
      3.60000000000000E-01
      0.00000000000000E+00   0.00000000000000E+00   0.00000000000000E+00   0.00000000000000E+00  -7.99425610824870E-05
     -4.12050390168519E-17  -7.99425610825282E-05  -4.39239153600000E-17   4.24000000000000E-01   4.24000000000000E-01
      0.00000000000000E+00   0.00000000000000E+00   7.99425610824870E-05   4.12050390168519E-17   7.99425610825282E-05
      4.39239153599999E-17
      3.80000000000000E-01
      0.00000000000000E+00   0.00000000000000E+00   0.00000000000000E+00   0.00000000000000E+00  -8.33363490529706E-05
     -4.29543095411525E-17  -8.33363490530135E-05  -4.57886098800003E-17   4.42000000000000E-01   4.42000000000000E-01
      0.00000000000000E+00   0.00000000000000E+00   8.33363490529706E-05   4.29543095411525E-17   8.33363490530135E-05
      4.57886098800002E-17
      4.00000000000000E-01
      0.00000000000000E+00   0.00000000000000E+00   0.00000000000000E+00   0.00000000000000E+00  -8.67301370234532E-05
     -4.47035800654526E-17  -8.67301370234979E-05  -4.76533044000001E-17   4.60000000000000E-01   4.60000000000000E-01
      0.00000000000000E+00   0.00000000000000E+00   8.67301370234532E-05   4.47035800654526E-17   8.67301370234979E-05
      4.76533044000000E-17
      4.20000000000000E-01
      0.00000000000000E+00   0.00000000000000E+00   0.00000000000000E+00   0.00000000000000E+00  -9.01239249939361E-05
     -4.64528505897530E-17  -9.01239249939826E-05  -4.95179989200001E-17   4.78000000000000E-01   4.78000000000000E-01
      0.00000000000000E+00   0.00000000000000E+00   9.01239249939361E-05   4.64528505897530E-17   9.01239249939826E-05
      4.95179989200000E-17
      4.40000000000000E-01
      0.00000000000000E+00   0.00000000000000E+00   0.00000000000000E+00   0.00000000000000E+00  -9.35177129644193E-05
     -4.82021211140531E-17  -9.35177129644675E-05  -5.13826934400001E-17   4.96000000000000E-01   4.96000000000000E-01
      0.00000000000000E+00   0.00000000000000E+00   9.35177129644193E-05   4.82021211140531E-17   9.35177129644675E-05
      5.13826934400001E-17
      4.60000000000000E-01
      0.00000000000000E+00   0.00000000000000E+00   0.00000000000000E+00   0.00000000000000E+00  -9.69115009349017E-05
     -4.99513916383535E-17  -9.69115009349517E-05  -5.32473879599999E-17   5.14000000000000E-01   5.14000000000000E-01
      0.00000000000000E+00   0.00000000000000E+00   9.69115009349017E-05   4.99513916383535E-17   9.69115009349517E-05
      5.32473879599998E-17
      4.80000000000000E-01
      0.00000000000000E+00   0.00000000000000E+00   0.00000000000000E+00   0.00000000000000E+00  -1.00305288905385E-04
     -5.17006621626539E-17  -1.00305288905437E-04  -5.51120824800000E-17   5.32000000000000E-01   5.32000000000000E-01
      0.00000000000000E+00   0.00000000000000E+00   1.00305288905385E-04   5.17006621626539E-17   1.00305288905437E-04
      5.51120824799999E-17
      5.00000000000000E-01
      0.00000000000000E+00   0.00000000000000E+00   0.00000000000000E+00   0.00000000000000E+00  -1.03699076875868E-04
     -5.34499326869539E-17  -1.03699076875921E-04  -5.69767770000000E-17   5.50000000000000E-01   5.50000000000000E-01
      0.00000000000000E+00   0.00000000000000E+00   1.03699076875868E-04   5.34499326869539E-17   1.03699076875921E-04
      5.69767770000000E-17
      5.20000000000000E-01
      0.00000000000000E+00   0.00000000000000E+00   0.00000000000000E+00   0.00000000000000E+00  -1.07092864846351E-04
     -5.51992032112546E-17  -1.07092864846406E-04  -5.88414715200001E-17   5.68000000000000E-01   5.68000000000000E-01
      0.00000000000000E+00   0.00000000000000E+00   1.07092864846351E-04   5.51992032112546E-17   1.07092864846406E-04
      5.88414715200000E-17
      5.40000000000000E-01
      0.00000000000000E+00   0.00000000000000E+00   0.00000000000000E+00   0.00000000000000E+00  -1.10486652816834E-04
     -5.69484737355550E-17  -1.10486652816891E-04  -6.07061660400001E-17   5.86000000000000E-01   5.86000000000000E-01
      0.00000000000000E+00   0.00000000000000E+00   1.10486652816834E-04   5.69484737355550E-17   1.10486652816891E-04
      6.07061660400001E-17
      5.60000000000000E-01
      0.00000000000000E+00   0.00000000000000E+00   0.00000000000000E+00   0.00000000000000E+00  -1.13880440787317E-04
     -5.86977442598551E-17  -1.13880440787375E-04  -6.25708605599998E-17   6.04000000000000E-01   6.04000000000000E-01
      0.00000000000000E+00   0.00000000000000E+00   1.13880440787317E-04   5.86977442598551E-17   1.13880440787375E-04
      6.25708605599999E-17
      5.80000000000000E-01
      0.00000000000000E+00   0.00000000000000E+00   0.00000000000000E+00   0.00000000000000E+00  -1.17274228757800E-04
     -6.04470147841551E-17  -1.17274228757860E-04  -6.44355550800000E-17   6.22000000000000E-01   6.22000000000000E-01
      0.00000000000000E+00   0.00000000000000E+00   1.17274228757800E-04   6.04470147841551E-17   1.17274228757860E-04
      6.44355550799999E-17
      6.00000000000000E-01
      0.00000000000000E+00   0.00000000000000E+00   0.00000000000000E+00   0.00000000000000E+00  -1.20668016728283E-04
     -6.21962853084559E-17  -1.20668016728345E-04  -6.63002496000000E-17   6.40000000000000E-01   6.40000000000000E-01
      0.00000000000000E+00   0.00000000000000E+00   1.20668016728283E-04   6.21962853084559E-17   1.20668016728345E-04
      6.63002496000000E-17
      6.20000000000000E-01
      0.00000000000000E+00   0.00000000000000E+00   0.00000000000000E+00   0.00000000000000E+00  -1.24061804698766E-04
     -6.39455558327562E-17  -1.24061804698830E-04  -6.81649441200001E-17   6.58000000000000E-01   6.58000000000000E-01
      0.00000000000000E+00   0.00000000000000E+00   1.24061804698766E-04   6.39455558327562E-17   1.24061804698830E-04
      6.81649441200001E-17
      6.40000000000000E-01
      0.00000000000000E+00   0.00000000000000E+00   0.00000000000000E+00   0.00000000000000E+00  -1.27455592669249E-04
     -6.56948263570562E-17  -1.27455592669315E-04  -7.00296386400002E-17   6.76000000000000E-01   6.76000000000000E-01
      0.00000000000000E+00   0.00000000000000E+00   1.27455592669249E-04   6.56948263570562E-17   1.27455592669315E-04
      7.00296386400001E-17
      6.60000000000000E-01
      0.00000000000000E+00   0.00000000000000E+00   0.00000000000000E+00   0.00000000000000E+00  -1.30849380639731E-04
     -6.74440968813567E-17  -1.30849380639799E-04  -7.18943331600000E-17   6.94000000000000E-01   6.94000000000000E-01
      0.00000000000000E+00   0.00000000000000E+00   1.30849380639731E-04   6.74440968813567E-17   1.30849380639799E-04
      7.18943331599999E-17
      6.80000000000000E-01
      0.00000000000000E+00   0.00000000000000E+00   0.00000000000000E+00   0.00000000000000E+00  -1.34243168610214E-04
     -6.91933674056571E-17  -1.34243168610284E-04  -7.37590276800001E-17   7.12000000000000E-01   7.12000000000000E-01
      0.00000000000000E+00   0.00000000000000E+00   1.34243168610214E-04   6.91933674056571E-17   1.34243168610284E-04
      7.37590276800000E-17
      7.00000000000000E-01
      0.00000000000000E+00   0.00000000000000E+00   0.00000000000000E+00   0.00000000000000E+00  -1.37636956580697E-04
     -7.09426379299570E-17  -1.37636956580768E-04  -7.56237222000001E-17   7.30000000000000E-01   7.30000000000000E-01
      0.00000000000000E+00   0.00000000000000E+00   1.37636956580697E-04   7.09426379299570E-17   1.37636956580768E-04
      7.56237222000000E-17
      7.20000000000000E-01
      0.00000000000000E+00   0.00000000000000E+00   0.00000000000000E+00   0.00000000000000E+00  -1.41030744551180E-04
     -7.26919084542579E-17  -1.41030744551253E-04  -7.74884167200002E-17   7.48000000000000E-01   7.48000000000000E-01
      0.00000000000000E+00   0.00000000000000E+00   1.41030744551180E-04   7.26919084542579E-17   1.41030744551253E-04
      7.74884167200001E-17
      7.40000000000000E-01
      0.00000000000000E+00   0.00000000000000E+00   0.00000000000000E+00   0.00000000000000E+00  -1.44424532521664E-04
     -7.44411789785583E-17  -1.44424532521738E-04  -7.93531112400003E-17   7.66000000000000E-01   7.66000000000000E-01
      0.00000000000000E+00   0.00000000000000E+00   1.44424532521664E-04   7.44411789785583E-17   1.44424532521738E-04
      7.93531112400001E-17
      7.60000000000000E-01
      0.00000000000000E+00   0.00000000000000E+00   0.00000000000000E+00   0.00000000000000E+00  -1.47818320492146E-04
     -7.61904495028583E-17  -1.47818320492222E-04  -8.12178057600000E-17   7.84000000000000E-01   7.84000000000000E-01
      0.00000000000000E+00   0.00000000000000E+00   1.47818320492146E-04   7.61904495028583E-17   1.47818320492222E-04
      8.12178057599999E-17
      7.80000000000000E-01
      0.00000000000000E+00   0.00000000000000E+00   0.00000000000000E+00   0.00000000000000E+00  -1.51212108462629E-04
     -7.79397200271587E-17  -1.51212108462707E-04  -8.30825002800001E-17   8.02000000000000E-01   8.02000000000000E-01
      0.00000000000000E+00   0.00000000000000E+00   1.51212108462629E-04   7.79397200271587E-17   1.51212108462707E-04
      8.30825002799999E-17
      8.00000000000000E-01
      0.00000000000000E+00   0.00000000000000E+00   0.00000000000000E+00   0.00000000000000E+00  -1.54605896433112E-04
     -7.96889905514591E-17  -1.54605896433192E-04  -8.49471948000001E-17   8.20000000000000E-01   8.20000000000000E-01
      0.00000000000000E+00   0.00000000000000E+00   1.54605896433112E-04   7.96889905514591E-17   1.54605896433192E-04
      8.49471948000000E-17
      8.20000000000000E-01
      0.00000000000000E+00   0.00000000000000E+00   0.00000000000000E+00   0.00000000000000E+00  -1.57999684403595E-04
     -8.14382610757589E-17  -1.57999684403677E-04  -8.68118893200002E-17   8.38000000000000E-01   8.38000000000000E-01
      0.00000000000000E+00   0.00000000000000E+00   1.57999684403595E-04   8.14382610757589E-17   1.57999684403677E-04
      8.68118893200001E-17
      8.40000000000000E-01
      0.00000000000000E+00   0.00000000000000E+00   0.00000000000000E+00   0.00000000000000E+00  -1.61393472374078E-04
     -8.31875316000593E-17  -1.61393472374162E-04  -8.86765838400003E-17   8.56000000000000E-01   8.56000000000000E-01
      0.00000000000000E+00   0.00000000000000E+00   1.61393472374078E-04   8.31875316000593E-17   1.61393472374162E-04
      8.86765838400002E-17
      8.60000000000000E-01
      0.00000000000000E+00   0.00000000000000E+00   0.00000000000000E+00   0.00000000000000E+00  -1.64787260344561E-04
     -8.49368021243600E-17  -1.64787260344646E-04  -9.05412783600001E-17   8.74000000000000E-01   8.74000000000000E-01
      0.00000000000000E+00   0.00000000000000E+00   1.64787260344561E-04   8.49368021243600E-17   1.64787260344646E-04
      9.05412783600000E-17
      8.80000000000000E-01
      0.00000000000000E+00   0.00000000000000E+00   0.00000000000000E+00   0.00000000000000E+00  -1.68181048315044E-04
     -8.66860726486597E-17  -1.68181048315131E-04  -9.24059728800002E-17   8.92000000000000E-01   8.92000000000000E-01
      0.00000000000000E+00   0.00000000000000E+00   1.68181048315044E-04   8.66860726486597E-17   1.68181048315131E-04
      9.24059728800000E-17
      9.00000000000000E-01
      0.00000000000000E+00   0.00000000000000E+00   0.00000000000000E+00   0.00000000000000E+00  -1.71574836285527E-04
     -8.84353431729601E-17  -1.71574836285615E-04  -9.42706674000001E-17   9.10000000000000E-01   9.10000000000000E-01
      0.00000000000000E+00   0.00000000000000E+00   1.71574836285527E-04   8.84353431729601E-17   1.71574836285615E-04
      9.42706674000000E-17
      9.20000000000000E-01
      0.00000000000000E+00   0.00000000000000E+00   0.00000000000000E+00   0.00000000000000E+00  -1.74968624256010E-04
     -9.01846136972611E-17  -1.74968624256100E-04  -9.61353619200003E-17   9.28000000000000E-01   9.28000000000000E-01
      0.00000000000000E+00   0.00000000000000E+00   1.74968624256010E-04   9.01846136972611E-17   1.74968624256100E-04
      9.61353619200001E-17
      9.40000000000001E-01