DF-ISE text

Info {
  version   = 1.0
  type      = xyplot
  datasets  = [
    "time"
    "n1contact OuterVoltage" "n1contact InnerVoltage" "n1contact QuasiFermiPotential" "n1contact DisplacementCurrent" "n1contact eCurrent"
    "n1contact hCurrent" "n1contact TotalCurrent" "n1contact Charge" "n2contact OuterVoltage" "n2contact InnerVoltage"
    "n2contact QuasiFermiPotential" "n2contact DisplacementCurrent" "n2contact eCurrent" "n2contact hCurrent" "n2contact TotalCurrent"
    "n2contact Charge" ]
  functions = [
    Time
    OuterVoltage InnerVoltage QuasiFermiPotential DisplacementCurrent eCurrent
    hCurrent TotalCurrent Charge OuterVoltage InnerVoltage
    QuasiFermiPotential DisplacementCurrent eCurrent hCurrent TotalCurrent
    Charge ]
}

Data {
      0.00000000000000E+00
      0.00000000000000E+00   0.00000000000000E+00   0.00000000000000E+00   0.00000000000000E+00   4.41932045543678E-26
      8.70009350778431E-27   5.28932980621521E-26  -7.49842869654683E-15   0.00000000000000E+00   0.00000000000000E+00
      0.00000000000000E+00   0.00000000000000E+00  -4.41932045543678E-26  -8.70009350778431E-27  -5.28932980621521E-26
      7.49842869654688E-15
      0.00000000000000E+00
      0.00000000000000E+00   0.00000000000000E+00   0.00000000000000E+00   0.00000000000000E+00  -4.42535777846335E-26
     -1.35312514233973E-26  -5.77848292080308E-26  -7.49842824322386E-15   0.00000000000000E+00   0.00000000000000E+00
      0.00000000000000E+00   0.00000000000000E+00   4.42535777846335E-26   1.35312514233973E-26   5.77848292080308E-26
      7.49842824322371E-15
      0.00000000000000E+00
      0.00000000000000E+00   0.00000000000000E+00   0.00000000000000E+00   0.00000000000000E+00   2.63831016260366E-26
      7.55745449869748E-27   3.39405561247341E-26  -7.49842824322366E-15   0.00000000000000E+00   0.00000000000000E+00
      0.00000000000000E+00   0.00000000000000E+00  -2.63831016260366E-26  -7.55745449869748E-27  -3.39405561247341E-26
      7.49842824322350E-15
      1.00000000000000E-01
      1.00000000000000E-03   1.00000000000000E-03   0.00000000000000E+00   0.00000000000000E+00   1.00138036041826E-20
      3.33815238920689E-21   1.33519559933895E-20  -7.49399875803066E-15   0.00000000000000E+00   0.00000000000000E+00
      0.00000000000000E+00   0.00000000000000E+00  -1.00138036041826E-20  -3.33815238920689E-21  -1.33519559933895E-20
      7.49399875803063E-15
      2.00000000000000E-01
      2.00000000000000E-03   2.00000000000000E-03   0.00000000000000E+00   0.00000000000000E+00   2.04225051870043E-20
      6.80794797809509E-21   2.72304531650994E-20  -7.48956691739776E-15   0.00000000000000E+00   0.00000000000000E+00
      0.00000000000000E+00   0.00000000000000E+00  -2.04225051870043E-20  -6.80794797809509E-21  -2.72304531650994E-20
      7.48956691739778E-15
      3.00000000000000E-01
      3.00000000000000E-03   3.00000000000000E-03   0.00000000000000E+00   0.00000000000000E+00   3.12415234677428E-20
      1.04145217863715E-20   4.16560452541142E-20  -7.48513271772496E-15   0.00000000000000E+00   0.00000000000000E+00
      0.00000000000000E+00   0.00000000000000E+00  -3.12415234677428E-20  -1.04145217863715E-20  -4.16560452541142E-20
      7.48513271772499E-15
      4.00000000000000E-01
      4.00000000000000E-03   4.00000000000000E-03   0.00000000000000E+00   0.00000000000000E+00   4.24872219463558E-20
      1.41633317595639E-20   5.66505537059197E-20  -7.48069615536416E-15   0.00000000000000E+00   0.00000000000000E+00
      0.00000000000000E+00   0.00000000000000E+00  -4.24872219463558E-20  -1.41633317595639E-20  -5.66505537059197E-20
      7.48069615536411E-15
      5.00000000000000E-01
      5.00000000000000E-03   5.00000000000000E-03   0.00000000000000E+00   0.00000000000000E+00   5.41760976080135E-20
      1.80598773791303E-20   7.22359749871438E-20  -7.47625722663395E-15   0.00000000000000E+00   0.00000000000000E+00
      0.00000000000000E+00   0.00000000000000E+00  -5.41760976080135E-20  -1.80598773791303E-20  -7.22359749871438E-20
      7.47625722663398E-15
      6.00000000000000E-01
      6.00000000000000E-03   6.00000000000000E-03   0.00000000000000E+00   0.00000000000000E+00   6.63258531516676E-20
      2.21100596538862E-20   8.84359128055538E-20  -7.47181592780939E-15   0.00000000000000E+00   0.00000000000000E+00
      0.00000000000000E+00   0.00000000000000E+00  -6.63258531516676E-20  -2.21100596538862E-20  -8.84359128055538E-20
      7.47181592780942E-15
      7.00000000000000E-01
      7.00000000000000E-03   7.00000000000000E-03   0.00000000000000E+00   0.00000000000000E+00   7.89548681809274E-20
      2.63200036902164E-20   1.05274871871144E-19  -7.46737225512440E-15   0.00000000000000E+00   0.00000000000000E+00
      0.00000000000000E+00   0.00000000000000E+00  -7.89548681809274E-20  -2.63200036902164E-20  -1.05274871871144E-19
      7.46737225512454E-15
      8.00000000000000E-01
      8.00000000000000E-03   8.00000000000000E-03   0.00000000000000E+00   0.00000000000000E+00   9.20815859327873E-20
      3.06958610957126E-20   1.22777447028500E-19  -7.46292620477109E-15   0.00000000000000E+00   0.00000000000000E+00
      0.00000000000000E+00   0.00000000000000E+00  -9.20815859327873E-20  -3.06958610957126E-20  -1.22777447028500E-19
      7.46292620477106E-15
      9.00000000000000E-01
      9.00000000000000E-03   9.00000000000000E-03   0.00000000000000E+00   0.00000000000000E+00   1.05725978717044E-19
      3.52442867001951E-20   1.40970265417239E-19  -7.45847777289943E-15   0.00000000000000E+00   0.00000000000000E+00
      0.00000000000000E+00   0.00000000000000E+00  -1.05725978717044E-19  -3.52442867001951E-20  -1.40970265417239E-19
      7.45847777289931E-15
      1.00000000000000E+00
      1.00000000000000E-02   1.00000000000000E-02   0.00000000000000E+00   0.00000000000000E+00   1.19908112059762E-19
      3.99719701539048E-20   1.59880082213667E-19  -7.45402695561701E-15   0.00000000000000E+00   0.00000000000000E+00
      0.00000000000000E+00   0.00000000000000E+00  -1.19908112059762E-19  -3.99719701539048E-20  -1.59880082213667E-19
      7.45402695561693E-15
      0.00000000000000E+00
      1.00000000000000E-02   1.00000000000000E-02   0.00000000000000E+00   0.00000000000000E+00   1.19908138623984E-19
      3.99719799765909E-20   1.59880118600575E-19  -7.45402695561432E-15   0.00000000000000E+00   0.00000000000000E+00
      0.00000000000000E+00   0.00000000000000E+00  -1.19908138623984E-19  -3.99719799765909E-20  -1.59880118600575E-19
      7.45402695561424E-15
      1.00000000000000E-01
      1.90000000000000E-02   1.90000000000000E-02   0.00000000000000E+00   0.00000000000000E+00   2.75548600298613E-19
      9.18554872241578E-20   3.67404087522770E-19  -7.41386159300769E-15   0.00000000000000E+00   0.00000000000000E+00
      0.00000000000000E+00   0.00000000000000E+00  -2.75548600298613E-19  -9.18554872241578E-20  -3.67404087522770E-19
      7.41386159300779E-15
      2.00000000000000E-01
      2.80000000000000E-02   2.80000000000000E-02   0.00000000000000E+00   0.00000000000000E+00   4.95980968511842E-19
      1.65337660083343E-19   6.61318628595185E-19  -7.37349964050285E-15   0.00000000000000E+00   0.00000000000000E+00
      0.00000000000000E+00   0.00000000000000E+00  -4.95980968511842E-19  -1.65337660083343E-19  -6.61318628595185E-19
      7.37349964050283E-15
      3.00000000000000E-01
      3.70000000000000E-02   3.70000000000000E-02   0.00000000000000E+00   0.00000000000000E+00   8.08180337255495E-19
      2.69410759584380E-19   1.07759109683987E-18  -7.33293776830125E-15   0.00000000000000E+00   0.00000000000000E+00
      0.00000000000000E+00   0.00000000000000E+00  -8.08180337255495E-19  -2.69410759584380E-19  -1.07759109683987E-18
      7.33293776830132E-15
      4.00000000000000E-01
      4.60000000000000E-02   4.60000000000000E-02   0.00000000000000E+00   0.00000000000000E+00   1.25035113670753E-18
      4.16810408788264E-19   1.66716154549579E-18  -7.29217232890336E-15   0.00000000000000E+00   0.00000000000000E+00
      0.00000000000000E+00   0.00000000000000E+00  -1.25035113670753E-18  -4.16810408788264E-19  -1.66716154549579E-18
      7.29217232890348E-15
      5.00000000000000E-01
      5.50000000000000E-02   5.50000000000000E-02   0.00000000000000E+00   0.00000000000000E+00   1.87660573872020E-18
      6.25575155652254E-19   2.50218089437245E-18  -7.25119934035675E-15   0.00000000000000E+00   0.00000000000000E+00
      0.00000000000000E+00   0.00000000000000E+00  -1.87660573872020E-18  -6.25575155652254E-19  -2.50218089437245E-18
      7.25119934035675E-15
      6.00000000000000E-01
      6.40000000000000E-02   6.40000000000000E-02   0.00000000000000E+00   0.00000000000000E+00   2.76358314543722E-18
      9.21252914529283E-19   3.68483605996650E-18  -7.21001447061215E-15   0.00000000000000E+00   0.00000000000000E+00
      0.00000000000000E+00   0.00000000000000E+00  -2.76358314543722E-18  -9.21252914529283E-19  -3.68483605996650E-18
      7.21001447061220E-15
      7.00000000000000E-01
      7.30000000000000E-02   7.30000000000000E-02   0.00000000000000E+00   0.00000000000000E+00   4.01983006894743E-18
      1.34002814634127E-18   5.35985821528870E-18  -7.16861302321932E-15   0.00000000000000E+00   0.00000000000000E+00
      0.00000000000000E+00   0.00000000000000E+00  -4.01983006894743E-18  -1.34002814634127E-18  -5.35985821528870E-18
      7.16861302321932E-15
      8.00000000000000E-01
      8.20000000000000E-02   8.20000000000000E-02   0.00000000000000E+00   0.00000000000000E+00   5.79908333004434E-18
      1.93314959648646E-18   7.73223292653080E-18  -7.12698992462731E-15   0.00000000000000E+00   0.00000000000000E+00
      0.00000000000000E+00   0.00000000000000E+00  -5.79908333004434E-18  -1.93314959648646E-18  -7.73223292653080E-18
      7.12698992462738E-15
      9.00000000000000E-01
      9.10000000000000E-02   9.10000000000000E-02   0.00000000000000E+00   0.00000000000000E+00   8.31908729852333E-18
      2.77320313314226E-18   1.10922904316656E-17  -7.08513971337604E-15   0.00000000000000E+00   0.00000000000000E+00
      0.00000000000000E+00   0.00000000000000E+00  -8.31908729852333E-18  -2.77320313314226E-18  -1.10922904316656E-17
      7.08513971337608E-15
      1.00000000000000E+00
      1.00000000000000E-01   1.00000000000000E-01   0.00000000000000E+00   0.00000000000000E+00   1.18882343105865E-17
      3.96299243667256E-18   1.58512267472591E-17  -7.04305653147737E-15   0.00000000000000E+00   0.00000000000000E+00
      0.00000000000000E+00   0.00000000000000E+00  -1.18882343105865E-17  -3.96299243667256E-18  -1.58512267472591E-17
      7.04305653147725E-15
      0.00000000000000E+00
      1.00000000000000E-01   1.00000000000000E-01   0.00000000000000E+00   0.00000000000000E+00   1.18882341623099E-17
      3.96299238824070E-18   1.58512265505506E-17  -7.04305653147738E-15   0.00000000000000E+00   0.00000000000000E+00
      0.00000000000000E+00   0.00000000000000E+00  -1.18882341623099E-17  -3.96299238824070E-18  -1.58512265505506E-17
      7.04305653147725E-15
      2.00000000000000E-02
      1.18000000000000E-01   1.18000000000000E-01   0.00000000000000E+00   0.00000000000000E+00   2.41030192293415E-17
      8.03483754943088E-18   3.21378567787724E-17  -6.95816580725006E-15   0.00000000000000E+00   0.00000000000000E+00
      0.00000000000000E+00   0.00000000000000E+00  -2.41030192293415E-17  -8.03483754943088E-18  -3.21378567787724E-17
      6.95816580725011E-15
      4.00000000000000E-02
      1.36000000000000E-01   1.36000000000000E-01   0.00000000000000E+00   0.00000000000000E+00   4.86057875707867E-17
      1.62029240445720E-17   6.48087116153587E-17  -6.87226279802033E-15   0.00000000000000E+00   0.00000000000000E+00
      0.00000000000000E+00   0.00000000000000E+00  -4.86057875707867E-17  -1.62029240445720E-17  -6.48087116153587E-17
      6.87226279802035E-15
      6.00000000000000E-02
      1.54000000000000E-01   1.54000000000000E-01   0.00000000000000E+00   0.00000000000000E+00   9.77574637470203E-17
      3.25878044976127E-17   1.30345268244633E-16  -6.78528613477808E-15   0.00000000000000E+00   0.00000000000000E+00
      0.00000000000000E+00   0.00000000000000E+00  -9.77574637470204E-17  -3.25878044976127E-17  -1.30345268244633E-16
      6.78528613477814E-15
      8.00000000000000E-02
      1.72000000000000E-01   1.72000000000000E-01   0.00000000000000E+00   0.00000000000000E+00   1.96354386077385E-16
      6.54554098020704E-17   2.61809795879455E-16  -6.69716832642613E-15   0.00000000000000E+00   0.00000000000000E+00
      0.00000000000000E+00   0.00000000000000E+00  -1.96354386077385E-16  -6.54554098020704E-17  -2.61809795879455E-16
      6.69716832642616E-15
      1.00000000000000E-01
      1.90000000000000E-01   1.90000000000000E-01   0.00000000000000E+00   0.00000000000000E+00   3.94136733019231E-16
      1.31386762021866E-16   5.25523495041098E-16  -6.60783632031685E-15   0.00000000000000E+00   0.00000000000000E+00
      0.00000000000000E+00   0.00000000000000E+00  -3.94136733019231E-16  -1.31386762021866E-16  -5.25523495041098E-16
      6.60783632031691E-15
      1.20000000000000E-01
      2.08000000000000E-01   2.08000000000000E-01   0.00000000000000E+00   0.00000000000000E+00   7.90881117391927E-16
      2.63642643657037E-16   1.05452376104896E-15  -6.51721234476278E-15   0.00000000000000E+00   0.00000000000000E+00
      0.00000000000000E+00   0.00000000000000E+00  -7.90881117391927E-16  -2.63642643657037E-16  -1.05452376104896E-15
      6.51721234476266E-15
      1.40000000000000E-01
      2.26000000000000E-01   2.26000000000000E-01   0.00000000000000E+00   0.00000000000000E+00   1.58673450422354E-15
      5.28942503620911E-16   2.11567700784445E-15  -6.42521502522189E-15   0.00000000000000E+00   0.00000000000000E+00
      0.00000000000000E+00   0.00000000000000E+00  -1.58673450422354E-15  -5.28942503620911E-16  -2.11567700784445E-15
      6.42521502522189E-15
      1.60000000000000E-01
      2.44000000000000E-01   2.44000000000000E-01   0.00000000000000E+00   0.00000000000000E+00   3.18318079202114E-15
      1.06112183749239E-15   4.24430262951353E-15  -6.33176073583716E-15   0.00000000000000E+00   0.00000000000000E+00
      0.00000000000000E+00   0.00000000000000E+00  -3.18318079202114E-15  -1.06112183749239E-15  -4.24430262951353E-15
      6.33176073583720E-15
      1.80000000000000E-01
      2.62000000000000E-01   2.62000000000000E-01   0.00000000000000E+00   0.00000000000000E+00   6.38557282865131E-15
      2.12864652788015E-15   8.51421935653146E-15  -6.23676511252837E-15   0.00000000000000E+00   0.00000000000000E+00
      0.00000000000000E+00   0.00000000000000E+00  -6.38557282865131E-15  -2.12864652788015E-15  -8.51421935653146E-15
      6.23676511252836E-15
      2.00000000000000E-01
      2.80000000000000E-01   2.80000000000000E-01   0.00000000000000E+00   0.00000000000000E+00   1.28093959739069E-14
      4.27004131124352E-15   1.70794372851505E-14  -6.14014461640571E-15   0.00000000000000E+00   0.00000000000000E+00
      0.00000000000000E+00   0.00000000000000E+00  -1.28093959739069E-14  -4.27004131124352E-15  -1.70794372851505E-14
      6.14014461640583E-15
      2.20000000000000E-01
      2.98000000000000E-01   2.98000000000000E-01   0.00000000000000E+00   0.00000000000000E+00   2.56951999043082E-14
      8.56554812521047E-15   3.42607480295186E-14  -6.04181800155625E-15   0.00000000000000E+00   0.00000000000000E+00
      0.00000000000000E+00   0.00000000000000E+00  -2.56951999043082E-14  -8.56554812521047E-15  -3.42607480295186E-14
      6.04181800155627E-15
      2.40000000000000E-01
      3.16000000000000E-01   3.16000000000000E-01   0.00000000000000E+00   0.00000000000000E+00   5.15432812556586E-14
      1.71820488714354E-14   6.87253301270940E-14  -5.94170751435397E-15   0.00000000000000E+00   0.00000000000000E+00
      0.00000000000000E+00   0.00000000000000E+00  -5.15432812556586E-14  -1.71820488714354E-14  -6.87253301270940E-14
      5.94170751435387E-15
      2.60000000000000E-01
      3.34000000000000E-01   3.34000000000000E-01   0.00000000000000E+00   0.00000000000000E+00   1.03392704092638E-13
      3.44661287458280E-14   1.37858832838466E-13  -5.83973963658695E-15   0.00000000000000E+00   0.00000000000000E+00
      0.00000000000000E+00   0.00000000000000E+00  -1.03392704092638E-13  -3.44661287458280E-14  -1.37858832838466E-13
      5.83973963658691E-15
      2.80000000000000E-01
      3.52000000000000E-01   3.52000000000000E-01   0.00000000000000E+00   0.00000000000000E+00   2.07398692375751E-13
      6.91366521862004E-14   2.76535344561951E-13  -5.73584518404195E-15   0.00000000000000E+00   0.00000000000000E+00
      0.00000000000000E+00   0.00000000000000E+00  -2.07398692375751E-13  -6.91366521862004E-14  -2.76535344561951E-13
      5.73584518404201E-15
      3.00000000000000E-01
      3.70000000000000E-01   3.70000000000000E-01   0.00000000000000E+00   0.00000000000000E+00   4.16026182361162E-13
      1.38682834919459E-13   5.54709017280621E-13  -5.62995858495927E-15   0.00000000000000E+00   0.00000000000000E+00
      0.00000000000000E+00   0.00000000000000E+00  -4.16026182361162E-13  -1.38682834919459E-13  -5.54709017280621E-13
      5.62995858495913E-15
      3.20000000000000E-01
      3.88000000000000E-01   3.88000000000000E-01   0.00000000000000E+00   0.00000000000000E+00   8.34514608710513E-13
      2.78186276324531E-13   1.11270088503504E-12  -5.52201618535031E-15   0.00000000000000E+00   0.00000000000000E+00
      0.00000000000000E+00   0.00000000000000E+00  -8.34514608710513E-13  -2.78186276324531E-13  -1.11270088503504E-12
      5.52201618535032E-15
      3.40000000000000E-01
      4.06000000000000E-01   4.06000000000000E-01   0.00000000000000E+00   0.00000000000000E+00   1.67396307860303E-12
      5.58016881593367E-13   2.23197996019640E-12  -5.41195345499620E-15   0.00000000000000E+00   0.00000000000000E+00
      0.00000000000000E+00   0.00000000000000E+00  -1.67396307860303E-12  -5.58016881593367E-13  -2.23197996019640E-12
      5.41195345499612E-15
      3.60000000000000E-01
      4.24000000000000E-01   4.24000000000000E-01   0.00000000000000E+00   0.00000000000000E+00   3.35781239015489E-12
      1.11932857325905E-12   4.47714096341394E-12  -5.29970099338281E-15   0.00000000000000E+00   0.00000000000000E+00
      0.00000000000000E+00   0.00000000000000E+00  -3.35781239015489E-12  -1.11932857325905E-12  -4.47714096341394E-12
      5.29970099338273E-15
      3.80000000000000E-01
      4.42000000000000E-01   4.42000000000000E-01   0.00000000000000E+00   0.00000000000000E+00   6.73543321014742E-12
      2.24525871642555E-12   8.98069192657297E-12  -5.18517925527567E-15   0.00000000000000E+00   0.00000000000000E+00
      0.00000000000000E+00   0.00000000000000E+00  -6.73543321014742E-12  -2.24525871642555E-12  -8.98069192657297E-12
      5.18517925527557E-15
      4.00000000000000E-01
      4.60000000000000E-01   4.60000000000000E-01   0.00000000000000E+00   0.00000000000000E+00   1.35105519981965E-11
      4.50374339815651E-12   1.80142953963530E-11  -5.06829193155858E-15   0.00000000000000E+00   0.00000000000000E+00
      0.00000000000000E+00   0.00000000000000E+00  -1.35105519981965E-11  -4.50374339815651E-12  -1.80142953963530E-11
      5.06829193155859E-15
      4.20000000000000E-01
      4.78000000000000E-01   4.78000000000000E-01   0.00000000000000E+00   0.00000000000000E+00   2.71006039977408E-11
      9.03398149987861E-12   3.61345854976194E-11  -4.94891793860556E-15   0.00000000000000E+00   0.00000000000000E+00
      0.00000000000000E+00   0.00000000000000E+00  -2.71006039977408E-11  -9.03398149987861E-12  -3.61345854976194E-11
      4.94891793860574E-15
      4.40000000000000E-01
      4.96000000000000E-01   4.96000000000000E-01   0.00000000000000E+00   0.00000000000000E+00   5.43604435439652E-11
      1.81210305427565E-11   7.24814740867217E-11  -4.82690200198027E-15   0.00000000000000E+00   0.00000000000000E+00
      0.00000000000000E+00   0.00000000000000E+00  -5.43604435439652E-11  -1.81210305427565E-11  -7.24814740867217E-11
      4.82690200198029E-15
      4.60000000000000E-01
      5.14000000000000E-01   5.14000000000000E-01   0.00000000000000E+00   0.00000000000000E+00   1.09039773224291E-10
      3.63483336829689E-11   1.45388106907260E-10  -4.70204388851039E-15   0.00000000000000E+00   0.00000000000000E+00
      0.00000000000000E+00   0.00000000000000E+00  -1.09039773224291E-10  -3.63483336829689E-11  -1.45388106907260E-10
      4.70204388851035E-15
      4.80000000000000E-01
      5.32000000000000E-01   5.32000000000000E-01   0.00000000000000E+00   0.00000000000000E+00   2.18718006329303E-10
      7.29094399145293E-11   2.91627446243832E-10  -4.57408647346805E-15   0.00000000000000E+00   0.00000000000000E+00
      0.00000000000000E+00   0.00000000000000E+00  -2.18718006329303E-10  -7.29094399145293E-11  -2.91627446243832E-10
      4.57408647346797E-15
      5.00000000000000E-01
      5.50000000000000E-01   5.50000000000000E-01   0.00000000000000E+00   0.00000000000000E+00   4.38713938334259E-10
      1.46244756084934E-10   5.84958694419193E-10  -4.44270306183236E-15   0.00000000000000E+00   0.00000000000000E+00
      0.00000000000000E+00   0.00000000000000E+00  -4.38713938334259E-10  -1.46244756084934E-10  -5.84958694419193E-10
      4.44270306183236E-15
      5.20000000000000E-01
      5.68000000000000E-01   5.68000000000000E-01   0.00000000000000E+00   0.00000000000000E+00   8.79984741489050E-10
      2.93341593079422E-10   1.17332633456847E-09  -4.30748475145560E-15   0.00000000000000E+00   0.00000000000000E+00
      0.00000000000000E+00   0.00000000000000E+00  -8.79984741489050E-10  -2.93341593079422E-10  -1.17332633456847E-09
      4.30748475145566E-15
      5.40000000000000E-01
      5.86000000000000E-01   5.86000000000000E-01   0.00000000000000E+00   0.00000000000000E+00   1.76508237377912E-09
      5.88387046532364E-10   2.35346942031148E-09  -4.16792915960429E-15   0.00000000000000E+00   0.00000000000000E+00
      0.00000000000000E+00   0.00000000000000E+00  -1.76508237377912E-09  -5.88387046532364E-10  -2.35346942031148E-09
      4.16792915960432E-15
      5.60000000000000E-01
      6.04000000000000E-01   6.04000000000000E-01   0.00000000000000E+00   0.00000000000000E+00   3.54037999367307E-09
      1.18017824997460E-09   4.72055824364767E-09  -4.02343253286480E-15   0.00000000000000E+00   0.00000000000000E+00
      0.00000000000000E+00   0.00000000000000E+00  -3.54037999367307E-09  -1.18017824997460E-09  -4.72055824364767E-09
      4.02343253286477E-15
      5.80000000000000E-01
      6.22000000000000E-01   6.22000000000000E-01   0.00000000000000E+00   0.00000000000000E+00   7.10113988868320E-09
      2.36714782088287E-09   9.46828770956607E-09  -3.87328806856120E-15   0.00000000000000E+00   0.00000000000000E+00
      0.00000000000000E+00   0.00000000000000E+00  -7.10113988868320E-09  -2.36714782088287E-09  -9.46828770956607E-09
      3.87328806856133E-15
      6.00000000000000E-01
      6.40000000000000E-01   6.40000000000000E-01   0.00000000000000E+00   0.00000000000000E+00   1.42428334258491E-08
      4.74780922458820E-09   1.89906426504373E-08  -3.71669405888742E-15   0.00000000000000E+00   0.00000000000000E+00
      0.00000000000000E+00   0.00000000000000E+00  -1.42428334258491E-08  -4.74780922458820E-09  -1.89906426504373E-08
      3.71669405888738E-15
      6.20000000000000E-01
      6.58000000000000E-01   6.58000000000000E-01   0.00000000000000E+00   0.00000000000000E+00   2.85659702366531E-08
      9.52237667318537E-09   3.80883469098384E-08  -3.55277602008755E-15   0.00000000000000E+00   0.00000000000000E+00
      0.00000000000000E+00   0.00000000000000E+00  -2.85659702366531E-08  -9.52237667318537E-09  -3.80883469098384E-08
      3.55277602008750E-15
      6.40000000000000E-01
      6.76000000000000E-01   6.76000000000000E-01   0.00000000000000E+00   0.00000000000000E+00   5.72894320018814E-08
      1.90972283721704E-08   7.63866603740518E-08  -3.38062709694188E-15   0.00000000000000E+00   0.00000000000000E+00
      0.00000000000000E+00   0.00000000000000E+00  -5.72894320018814E-08  -1.90972283721704E-08  -7.63866603740517E-08
      3.38062709694181E-15
      6.60000000000000E-01
      6.94000000000000E-01   6.94000000000000E-01   0.00000000000000E+00   0.00000000000000E+00   1.14881706500920E-07
      3.82953498538041E-08   1.53177056354725E-07  -3.19937077885482E-15   0.00000000000000E+00   0.00000000000000E+00
      0.00000000000000E+00   0.00000000000000E+00  -1.14881706500920E-07  -3.82953498538041E-08  -1.53177056354725E-07
      3.19937077885472E-15
      6.80000000000000E-01
      7.12000000000000E-01   7.12000000000000E-01   0.00000000000000E+00   0.00000000000000E+00   2.30321425489544E-07
      7.67765590616420E-08   3.07097984551186E-07  -3.00824994367201E-15   0.00000000000000E+00   0.00000000000000E+00
      0.00000000000000E+00   0.00000000000000E+00  -2.30321425489544E-07  -7.67765590616420E-08  -3.07097984551186E-07
      3.00824994367200E-15
      7.00000000000000E-01
      7.30000000000000E-01   7.30000000000000E-01   0.00000000000000E+00   0.00000000000000E+00   4.61570636045290E-07
      1.53861955906380E-07   6.15432591951670E-07  -2.80674797800364E-15   0.00000000000000E+00   0.00000000000000E+00
      0.00000000000000E+00   0.00000000000000E+00  -4.61570636045290E-07  -1.53861955906380E-07  -6.15432591951670E-07
      2.80674797800358E-15
      7.20000000000000E-01
      7.48000000000000E-01   7.48000000000000E-01   0.00000000000000E+00   0.00000000000000E+00   9.24252025942124E-07
      3.08092802681622E-07   1.23234482862375E-06  -2.59475359348175E-15   0.00000000000000E+00   0.00000000000000E+00
      0.00000000000000E+00   0.00000000000000E+00  -9.24252025942124E-07  -3.08092802681622E-07  -1.23234482862375E-06
      2.59475359348185E-15
      7.40000000000000E-01
      7.66000000000000E-01   7.66000000000000E-01   0.00000000000000E+00   0.00000000000000E+00   1.84778646048499E-06
      6.15941716766315E-07   2.46372817725131E-06  -2.37279305838298E-15   0.00000000000000E+00   0.00000000000000E+00
      0.00000000000000E+00   0.00000000000000E+00  -1.84778646048499E-06  -6.15941716766315E-07  -2.46372817725131E-06
      2.37279305838294E-15
      7.60000000000000E-01
      7.84000000000000E-01   7.84000000000000E-01   0.00000000000000E+00   0.00000000000000E+00   3.68265454779752E-06
      1.22756042798833E-06   4.91021497578585E-06  -2.14236945057369E-15   0.00000000000000E+00   0.00000000000000E+00
      0.00000000000000E+00   0.00000000000000E+00  -3.68265454779752E-06  -1.22756042798833E-06  -4.91021497578585E-06
      2.14236945057366E-15
      7.80000000000000E-01
      8.02000000000000E-01   8.02000000000000E-01   0.00000000000000E+00   0.00000000000000E+00   7.29559202291580E-06
      2.43182050404584E-06   9.72741252696165E-06  -1.90644879968059E-15   0.00000000000000E+00   0.00000000000000E+00
      0.00000000000000E+00   0.00000000000000E+00  -7.29559202291580E-06  -2.43182050404584E-06  -9.72741252696165E-06
      1.90644879968058E-15
      8.00000000000000E-01
      8.20000000000000E-01   8.20000000000000E-01   0.00000000000000E+00   0.00000000000000E+00   1.42913847840159E-05
      4.76349111392332E-06   1.90548758979392E-05  -1.67005385094064E-15   0.00000000000000E+00   0.00000000000000E+00
      0.00000000000000E+00   0.00000000000000E+00  -1.42913847840159E-05  -4.76349111392332E-06  -1.90548758979392E-05
      1.67005385094064E-15
      8.20000000000000E-01
      8.38000000000000E-01   8.38000000000000E-01   0.00000000000000E+00   0.00000000000000E+00   2.74428717797846E-05
      9.14630552488459E-06   3.65891773046692E-05  -1.44064510761804E-15   0.00000000000000E+00   0.00000000000000E+00
      0.00000000000000E+00   0.00000000000000E+00  -2.74428717797846E-05  -9.14630552488459E-06  -3.65891773046692E-05
      1.44064510761799E-15
      8.40000000000000E-01
      8.56000000000000E-01   8.56000000000000E-01   0.00000000000000E+00   0.00000000000000E+00   5.10228146390509E-05
      1.70029414681414E-05   6.80257561071923E-05  -1.22749051225464E-15   0.00000000000000E+00   0.00000000000000E+00
      0.00000000000000E+00   0.00000000000000E+00  -5.10228146390508E-05  -1.70029414681414E-05  -6.80257561071923E-05
      1.22749051225463E-15
      8.60000000000000E-01
      8.74000000000000E-01   8.74000000000000E-01   0.00000000000000E+00   0.00000000000000E+00   9.05967022130173E-05
      3.01849464265606E-05   1.20781648639578E-04  -1.03927586509457E-15   0.00000000000000E+00   0.00000000000000E+00
      0.00000000000000E+00   0.00000000000000E+00  -9.05967022130173E-05  -3.01849464265606E-05  -1.20781648639578E-04
      1.03927586509458E-15
      8.80000000000000E-01
      8.92000000000000E-01   8.92000000000000E-01   0.00000000000000E+00   0.00000000000000E+00   1.52036010877819E-04
      5.06432136909499E-05   2.02679224568769E-04  -8.80911726926098E-16   0.00000000000000E+00   0.00000000000000E+00
      0.00000000000000E+00   0.00000000000000E+00  -1.52036010877819E-04  -5.06432136909499E-05  -2.02679224568769E-04
      8.80911726926101E-16
      9.00000000000000E-01
      9.10000000000000E-01   9.10000000000000E-01   0.00000000000000E+00   0.00000000000000E+00   2.40310401798829E-04
      8.00262323804243E-05   3.20336634179254E-04  -7.52212019926775E-16   0.00000000000000E+00   0.00000000000000E+00
      0.00000000000000E+00   0.00000000000000E+00  -2.40310401798829E-04  -8.00262323804243E-05  -3.20336634179254E-04
      7.52212019926776E-16
      9.20000000000000E-01
      9.28000000000000E-01   9.28000000000000E-01   0.00000000000000E+00   0.00000000000000E+00   3.58902205225074E-04
      1.19486857022987E-04   4.78389062248061E-04  -6.49380088882791E-16   0.00000000000000E+00   0.00000000000000E+00
      0.00000000000000E+00   0.00000000000000E+00  -3.58902205225074E-04  -1.19486857022987E-04  -4.78389062248061E-04
      6.49380088882792E-16
      9.40000000000001E-01