DF-ISE text

Info {
  version   = 1.0
  type      = xyplot
  datasets  = [
    "time"
    "n1contact OuterVoltage" "n1contact InnerVoltage" "n1contact QuasiFermiPotential" "n1contact DisplacementCurrent" "n1contact eCurrent"
    "n1contact hCurrent" "n1contact TotalCurrent" "n1contact Charge" "n2contact OuterVoltage" "n2contact InnerVoltage"
    "n2contact QuasiFermiPotential" "n2contact DisplacementCurrent" "n2contact eCurrent" "n2contact hCurrent" "n2contact TotalCurrent"
    "n2contact Charge" ]
  functions = [
    Time
    OuterVoltage InnerVoltage QuasiFermiPotential DisplacementCurrent eCurrent
    hCurrent TotalCurrent Charge OuterVoltage InnerVoltage
    QuasiFermiPotential DisplacementCurrent eCurrent hCurrent TotalCurrent
    Charge ]
}

Data {
      0.00000000000000E+00
      0.00000000000000E+00   0.00000000000000E+00   0.00000000000000E+00   0.00000000000000E+00   4.41932046461036E-26
      8.70009341604928E-27   5.28932980621528E-26  -7.49842869654683E-15   0.00000000000000E+00   0.00000000000000E+00
      0.00000000000000E+00   0.00000000000000E+00  -4.41932042613423E-26  -8.70009380081096E-27  -5.28932980621532E-26
      7.49842869654688E-15
      0.00000000000000E+00
      0.00000000000000E+00   0.00000000000000E+00   0.00000000000000E+00   0.00000000000000E+00  -4.42535753081655E-26
     -1.35312538998658E-26  -5.77848292080313E-26  -7.49842824322386E-15   0.00000000000000E+00   0.00000000000000E+00
      0.00000000000000E+00   0.00000000000000E+00   4.42535859364659E-26   1.35312432715647E-26   5.77848292080306E-26
      7.49842824322371E-15
      0.00000000000000E+00
      0.00000000000000E+00   0.00000000000000E+00   0.00000000000000E+00   0.00000000000000E+00   2.63831016976037E-26
      7.55745442713089E-27   3.39405561247346E-26  -7.49842824322366E-15   0.00000000000000E+00   0.00000000000000E+00
      0.00000000000000E+00   0.00000000000000E+00  -2.63831013921419E-26  -7.55745473259182E-27  -3.39405561247337E-26
      7.49842824322350E-15
      1.00000000000000E-01
      1.00000000000000E-03   1.00000000000000E-03   0.00000000000000E+00   0.00000000000000E+00   1.00136237470714E-20
      6.96200376356718E-21   1.69756275106386E-20  -7.49399875803065E-15   0.00000000000000E+00   0.00000000000000E+00
      0.00000000000000E+00   0.00000000000000E+00  -1.36380631768681E-20  -3.33756433377051E-21  -1.69756275106386E-20
      7.49399875803063E-15
      2.00000000000000E-01
      2.00000000000000E-03   2.00000000000000E-03   0.00000000000000E+00   0.00000000000000E+00   2.04221447100228E-20
      1.40822809704764E-20   3.45044256804992E-20  -7.48956691739775E-15   0.00000000000000E+00   0.00000000000000E+00
      0.00000000000000E+00   0.00000000000000E+00  -2.76976771387318E-20  -6.80674854176768E-21  -3.45044256804995E-20
      7.48956691739777E-15
      3.00000000000000E-01
      3.00000000000000E-03   3.00000000000000E-03   0.00000000000000E+00   0.00000000000000E+00   3.12409719013726E-20
      2.13674600152373E-20   5.26084319166099E-20  -7.48513271772496E-15   0.00000000000000E+00   0.00000000000000E+00
      0.00000000000000E+00   0.00000000000000E+00  -4.21957434277868E-20  -1.04126884888229E-20  -5.26084319166098E-20
      7.48513271772499E-15
      4.00000000000000E-01
      4.00000000000000E-03   4.00000000000000E-03   0.00000000000000E+00   0.00000000000000E+00   4.24864697000318E-20
      2.88245095162517E-20   7.13109792162835E-20  -7.48069615536416E-15   0.00000000000000E+00   0.00000000000000E+00
      0.00000000000000E+00   0.00000000000000E+00  -5.71501403804225E-20  -1.41608388358602E-20  -7.13109792162828E-20
      7.48069615536411E-15
      5.00000000000000E-01
      5.00000000000000E-03   5.00000000000000E-03   0.00000000000000E+00   0.00000000000000E+00   5.41751370962239E-20
      3.64604646856038E-20   9.06356017818277E-20  -7.47625722663395E-15   0.00000000000000E+00   0.00000000000000E+00
      0.00000000000000E+00   0.00000000000000E+00  -7.25789030487090E-20  -1.80566987331157E-20  -9.06356017818247E-20
      7.47625722663398E-15
      6.00000000000000E-01
      6.00000000000000E-03   6.00000000000000E-03   0.00000000000000E+00   0.00000000000000E+00   6.63246857914437E-20
      4.42827880878092E-20   1.10607473879253E-19  -7.47181592780939E-15   0.00000000000000E+00   0.00000000000000E+00
      0.00000000000000E+00   0.00000000000000E+00  -8.85013019941201E-20  -2.21061718851337E-20  -1.10607473879254E-19
      7.47181592780942E-15
      7.00000000000000E-01
      7.00000000000000E-03   7.00000000000000E-03   0.00000000000000E+00   0.00000000000000E+00   7.89534371426763E-20
      5.22991659376689E-20   1.31252603080345E-19  -7.46737225512440E-15   0.00000000000000E+00   0.00000000000000E+00
      0.00000000000000E+00   0.00000000000000E+00  -1.04937240938295E-19  -2.63153621420470E-20  -1.31252603080342E-19
      7.46737225512455E-15
      8.00000000000000E-01
      8.00000000000000E-03   8.00000000000000E-03   0.00000000000000E+00   0.00000000000000E+00   9.20799686258547E-20
      6.05173980978275E-20   1.52597366723682E-19  -7.46292620477108E-15   0.00000000000000E+00   0.00000000000000E+00
      0.00000000000000E+00   0.00000000000000E+00  -1.21906903948098E-19  -3.06904627755826E-20  -1.52597366723680E-19
      7.46292620477106E-15
      9.00000000000000E-01
      9.00000000000000E-03   9.00000000000000E-03   0.00000000000000E+00   0.00000000000000E+00   1.05724108490647E-19
      6.89457272138446E-20   1.74669835704492E-19  -7.45847777289943E-15   0.00000000000000E+00   0.00000000000000E+00
      0.00000000000000E+00   0.00000000000000E+00  -1.39431750826966E-19  -3.52380848775217E-20  -1.74669835704487E-19
      7.45847777289931E-15
      1.00000000000000E+00
      1.00000000000000E-02   1.00000000000000E-02   0.00000000000000E+00   0.00000000000000E+00   1.19905969972269E-19
      7.75925122184496E-20   1.97498482190718E-19  -7.45402695561701E-15   0.00000000000000E+00   0.00000000000000E+00
      0.00000000000000E+00   0.00000000000000E+00  -1.57533552078781E-19  -3.99649301119387E-20  -1.97498482190719E-19
      7.45402695561693E-15
      0.00000000000000E+00
      1.00000000000000E-02   1.00000000000000E-02   0.00000000000000E+00   0.00000000000000E+00   1.19906024308088E-19
      7.75925312023812E-20   1.97498555510470E-19  -7.45402695561432E-15   0.00000000000000E+00   0.00000000000000E+00
      0.00000000000000E+00   0.00000000000000E+00  -1.57533606414976E-19  -3.99649490954986E-20  -1.97498555510474E-19
      7.45402695561425E-15
      1.00000000000000E-01
      1.90000000000000E-02   1.90000000000000E-02   0.00000000000000E+00   0.00000000000000E+00   2.75543744916463E-19
      1.66799038324387E-19   4.42342783240850E-19  -7.41386159300769E-15   0.00000000000000E+00   0.00000000000000E+00
      0.00000000000000E+00   0.00000000000000E+00  -3.50503453714296E-19  -9.18393295265480E-20  -4.42342783240844E-19
      7.41386159300779E-15
      2.00000000000000E-01
      2.80000000000000E-02   2.80000000000000E-02   0.00000000000000E+00   0.00000000000000E+00   4.95972129014469E-19
      2.82268527464906E-19   7.78240656479375E-19  -7.37349964050284E-15   0.00000000000000E+00   0.00000000000000E+00
      0.00000000000000E+00   0.00000000000000E+00  -6.12932111988985E-19  -1.65308544490392E-19  -7.78240656479378E-19
      7.37349964050284E-15
      3.00000000000000E-01
      3.70000000000000E-02   3.70000000000000E-02   0.00000000000000E+00   0.00000000000000E+00   8.08166078284582E-19
      4.34563133249132E-19   1.24272921153371E-18  -7.33293776830126E-15   0.00000000000000E+00   0.00000000000000E+00
      0.00000000000000E+00   0.00000000000000E+00  -9.73365848428527E-19  -2.69363363105202E-19  -1.24272921153373E-18
      7.33293776830132E-15
      4.00000000000000E-01
      4.60000000000000E-02   4.60000000000000E-02   0.00000000000000E+00   0.00000000000000E+00   1.25032921447085E-18
      6.38282631299902E-19   1.88861184577075E-18  -7.29217232890336E-15   0.00000000000000E+00   0.00000000000000E+00
      0.00000000000000E+00   0.00000000000000E+00  -1.47187474319143E-18  -4.16737102579274E-19  -1.88861184577070E-18
      7.29217232890346E-15
      5.00000000000000E-01
      5.50000000000000E-02   5.50000000000000E-02   0.00000000000000E+00   0.00000000000000E+00   1.87657278788652E-18
      9.13700508023213E-19   2.79027329590974E-18  -7.25119934035676E-15   0.00000000000000E+00   0.00000000000000E+00
      0.00000000000000E+00   0.00000000000000E+00  -2.16480819853090E-18  -6.25465097378819E-19  -2.79027329590972E-18
      7.25119934035674E-15
      6.00000000000000E-01
      6.40000000000000E-02   6.40000000000000E-02   0.00000000000000E+00   0.00000000000000E+00   2.76353439101696E-18
      1.28906364056220E-18   4.05259803157916E-18  -7.21001447061215E-15   0.00000000000000E+00   0.00000000000000E+00
      0.00000000000000E+00   0.00000000000000E+00  -3.13150729210434E-18  -9.21090739474836E-19  -4.05259803157918E-18
      7.21001447061221E-15
      7.00000000000000E-01
      7.30000000000000E-02   7.30000000000000E-02   0.00000000000000E+00   0.00000000000000E+00   4.01975877244198E-18
      1.80383375587306E-18   5.82359252831504E-18  -7.16861302321933E-15   0.00000000000000E+00   0.00000000000000E+00
      0.00000000000000E+00   0.00000000000000E+00  -4.48380041318537E-18  -1.33979211512978E-18  -5.82359252831515E-18
      7.16861302321929E-15
      8.00000000000000E-01
      8.20000000000000E-02   8.20000000000000E-02   0.00000000000000E+00   0.00000000000000E+00   5.79898077160394E-18
      2.51325573709854E-18   8.31223650870248E-18  -7.12698992462732E-15   0.00000000000000E+00   0.00000000000000E+00
      0.00000000000000E+00   0.00000000000000E+00  -6.37942735942303E-18  -1.93280914927950E-18  -8.31223650870252E-18
      7.12698992462738E-15
      9.00000000000000E-01
      9.10000000000000E-02   9.10000000000000E-02   0.00000000000000E+00   0.00000000000000E+00   8.31894028254147E-18
      3.49480266562237E-18   1.18137429481638E-17  -7.08513971337605E-15   0.00000000000000E+00   0.00000000000000E+00
      0.00000000000000E+00   0.00000000000000E+00  -9.04102822599736E-18  -2.77271472216639E-18  -1.18137429481637E-17
      7.08513971337608E-15
      1.00000000000000E+00
      1.00000000000000E-01   1.00000000000000E-01   0.00000000000000E+00   0.00000000000000E+00   1.18880243466339E-17
      4.85727028725823E-18   1.67452946338921E-17  -7.04305653147736E-15   0.00000000000000E+00   0.00000000000000E+00
      0.00000000000000E+00   0.00000000000000E+00  -1.27830001984020E-17  -3.96229443548985E-18  -1.67452946338918E-17
      7.04305653147721E-15
      0.00000000000000E+00
      1.00000000000000E-01   1.00000000000000E-01   0.00000000000000E+00   0.00000000000000E+00   1.18880235381156E-17
      4.85727002216598E-18   1.67452935602816E-17  -7.04305653147736E-15   0.00000000000000E+00   0.00000000000000E+00
      0.00000000000000E+00   0.00000000000000E+00  -1.27829993898837E-17  -3.96229417039760E-18  -1.67452935602813E-17
      7.04305653147720E-15
      2.00000000000000E-02
      1.18000000000000E-01   1.18000000000000E-01   0.00000000000000E+00   0.00000000000000E+00   2.41025268326623E-17
      9.39913769946746E-18   3.35016645321298E-17  -6.95816580724998E-15   0.00000000000000E+00   0.00000000000000E+00
      0.00000000000000E+00   0.00000000000000E+00  -2.54682646345414E-17  -8.03339989758754E-18  -3.35016645321290E-17
      6.95816580725002E-15
      4.00000000000000E-02
      1.36000000000000E-01   1.36000000000000E-01   0.00000000000000E+00   0.00000000000000E+00   4.86045720414105E-17
      1.82747631004923E-17   6.68793351419028E-17  -6.87226279802031E-15   0.00000000000000E+00   0.00000000000000E+00
      0.00000000000000E+00   0.00000000000000E+00  -5.06793848217648E-17  -1.61999503201382E-17  -6.68793351419029E-17
      6.87226279802034E-15
      6.00000000000000E-02
      1.54000000000000E-01   1.54000000000000E-01   0.00000000000000E+00   0.00000000000000E+00   9.77552527474538E-17
      3.57290709212930E-17   1.33484323668747E-16  -6.78528613477809E-15   0.00000000000000E+00   0.00000000000000E+00
      0.00000000000000E+00   0.00000000000000E+00  -1.00902423873532E-16  -3.25818997952145E-17  -1.33484323668747E-16
      6.78528613477815E-15
      8.00000000000000E-02
      1.72000000000000E-01   1.72000000000000E-01   0.00000000000000E+00   0.00000000000000E+00   1.96350908294430E-16
      7.02177485666452E-17   2.66568656861075E-16  -6.69716832642613E-15   0.00000000000000E+00   0.00000000000000E+00
      0.00000000000000E+00   0.00000000000000E+00  -2.01124790498226E-16  -6.54438663628480E-17  -2.66568656861074E-16
      6.69716832642616E-15
      1.00000000000000E-01
      1.90000000000000E-01   1.90000000000000E-01   0.00000000000000E+00   0.00000000000000E+00   3.94129751526579E-16
      1.38611872567047E-16   5.32741624093626E-16  -6.60783632031687E-15   0.00000000000000E+00   0.00000000000000E+00
      0.00000000000000E+00   0.00000000000000E+00  -4.01378039107729E-16  -1.31363584985889E-16  -5.32741624093618E-16
      6.60783632031693E-15
      1.20000000000000E-01
      2.08000000000000E-01   2.08000000000000E-01   0.00000000000000E+00   0.00000000000000E+00   7.90867103190894E-16
      2.74618912125806E-16   1.06548601531670E-15  -6.51721234476278E-15   0.00000000000000E+00   0.00000000000000E+00
      0.00000000000000E+00   0.00000000000000E+00  -8.01889892795317E-16  -2.63596122521408E-16  -1.06548601531672E-15
      6.51721234476264E-15
      1.40000000000000E-01
      2.26000000000000E-01   2.26000000000000E-01   0.00000000000000E+00   0.00000000000000E+00   1.58670637117901E-15
      5.45647892332736E-16   2.13235426351174E-15  -6.42521502522190E-15   0.00000000000000E+00   0.00000000000000E+00
      0.00000000000000E+00   0.00000000000000E+00  -1.60350512512035E-15  -5.28849138391324E-16  -2.13235426351167E-15
      6.42521502522189E-15
      1.60000000000000E-01
      2.44000000000000E-01   2.44000000000000E-01   0.00000000000000E+00   0.00000000000000E+00   3.18312435762712E-15
      1.08660471172061E-15   4.26972906934773E-15  -6.33176073583718E-15   0.00000000000000E+00   0.00000000000000E+00
      0.00000000000000E+00   0.00000000000000E+00  -3.20879458321937E-15  -1.06093448612835E-15  -4.26972906934773E-15
      6.33176073583723E-15
      1.80000000000000E-01
      2.62000000000000E-01   2.62000000000000E-01   0.00000000000000E+00   0.00000000000000E+00   6.38545959907234E-15
      2.16762684275083E-15   8.55308644182318E-15  -6.23676511252848E-15   0.00000000000000E+00   0.00000000000000E+00
      0.00000000000000E+00   0.00000000000000E+00  -6.42481585926124E-15  -2.12827058256198E-15  -8.55308644182322E-15
      6.23676511252841E-15
      2.00000000000000E-01
      2.80000000000000E-01   2.80000000000000E-01   0.00000000000000E+00   0.00000000000000E+00   1.28091686832665E-14
      4.32986824289402E-15   1.71390369261605E-14  -6.14014461640576E-15   0.00000000000000E+00   0.00000000000000E+00
      0.00000000000000E+00   0.00000000000000E+00  -1.28697500165700E-14  -4.26928690959062E-15  -1.71390369261606E-14
      6.14014461640578E-15
      2.20000000000000E-01
      2.98000000000000E-01   2.98000000000000E-01   0.00000000000000E+00   0.00000000000000E+00   2.56947439792250E-14
      8.65774154287984E-15   3.43524855221048E-14  -6.04181800155635E-15   0.00000000000000E+00   0.00000000000000E+00
      0.00000000000000E+00   0.00000000000000E+00  -2.57884511258145E-14  -8.56403439629043E-15  -3.43524855221049E-14
      6.04181800155631E-15
      2.40000000000000E-01
      3.16000000000000E-01   3.16000000000000E-01   0.00000000000000E+00   0.00000000000000E+00   5.15423662164711E-14
      1.73248097937776E-14   6.88671760102487E-14  -5.94170751435416E-15   0.00000000000000E+00   0.00000000000000E+00
      0.00000000000000E+00   0.00000000000000E+00  -5.16881646432623E-14  -1.71790113669862E-14  -6.88671760102486E-14
      5.94170751435408E-15
      2.60000000000000E-01
      3.34000000000000E-01   3.34000000000000E-01   0.00000000000000E+00   0.00000000000000E+00   1.03390867894783E-13
      3.46884845216575E-14   1.38079352416441E-13  -5.83973963658714E-15   0.00000000000000E+00   0.00000000000000E+00
      0.00000000000000E+00   0.00000000000000E+00  -1.03619318741280E-13  -3.44600336751591E-14  -1.38079352416439E-13
      5.83973963658704E-15
      2.80000000000000E-01
      3.52000000000000E-01   3.52000000000000E-01   0.00000000000000E+00   0.00000000000000E+00   2.07395007788526E-13
      6.94854019854425E-14   2.76880409773968E-13  -5.73584518404231E-15   0.00000000000000E+00   0.00000000000000E+00
      0.00000000000000E+00   0.00000000000000E+00  -2.07755987947809E-13  -6.91244218261518E-14  -2.76880409773960E-13
      5.73584518404235E-15
      3.00000000000000E-01
      3.70000000000000E-01   3.70000000000000E-01   0.00000000000000E+00   0.00000000000000E+00   4.16018789245133E-13
      1.39234376075921E-13   5.55253165321054E-13  -5.62995858495980E-15   0.00000000000000E+00   0.00000000000000E+00
      0.00000000000000E+00   0.00000000000000E+00  -4.16594871795168E-13  -1.38658293525903E-13  -5.55253165321071E-13
      5.62995858495979E-15
      3.20000000000000E-01
      3.88000000000000E-01   3.88000000000000E-01   0.00000000000000E+00   0.00000000000000E+00   8.34499773510226E-13
      2.79067081561695E-13   1.11356685507192E-12  -5.52201618535135E-15   0.00000000000000E+00   0.00000000000000E+00
      0.00000000000000E+00   0.00000000000000E+00  -8.35429823704371E-13  -2.78137031367574E-13  -1.11356685507195E-12
      5.52201618535132E-15
      3.40000000000000E-01
      4.06000000000000E-01   4.06000000000000E-01   0.00000000000000E+00   0.00000000000000E+00   1.67393330925538E-12
      5.59439566055176E-13   2.23337287531056E-12  -5.41195345499767E-15   0.00000000000000E+00   0.00000000000000E+00
      0.00000000000000E+00   0.00000000000000E+00  -1.67545480964500E-12  -5.57918065665638E-13  -2.23337287531064E-12
      5.41195345499771E-15
      3.60000000000000E-01
      4.24000000000000E-01   4.24000000000000E-01   0.00000000000000E+00   0.00000000000000E+00   3.35775265542726E-12
      1.12165649987829E-12   4.47940915530555E-12  -5.29970099338526E-15   0.00000000000000E+00   0.00000000000000E+00
      0.00000000000000E+00   0.00000000000000E+00  -3.36027886773370E-12  -1.11913028757179E-12  -4.47940915530549E-12
      5.29970099338515E-15
      3.80000000000000E-01
      4.42000000000000E-01   4.42000000000000E-01   0.00000000000000E+00   0.00000000000000E+00   6.73531334352050E-12
      2.24912359434040E-12   8.98443693786090E-12  -5.18517925527997E-15   0.00000000000000E+00   0.00000000000000E+00
      0.00000000000000E+00   0.00000000000000E+00  -6.73957610724149E-12  -2.24486083061964E-12  -8.98443693786113E-12
      5.18517925527986E-15
      4.00000000000000E-01
      4.60000000000000E-01   4.60000000000000E-01   0.00000000000000E+00   0.00000000000000E+00   1.35103114742769E-11
      4.51026258140608E-12   1.80205740556830E-11  -5.06829193156589E-15   0.00000000000000E+00   0.00000000000000E+00
      0.00000000000000E+00   0.00000000000000E+00  -1.35176290674180E-11  -4.50294498826521E-12  -1.80205740556832E-11
      5.06829193156575E-15
      4.20000000000000E-01
      4.78000000000000E-01   4.78000000000000E-01   0.00000000000000E+00   0.00000000000000E+00   2.71001213500774E-11
      9.04516495643668E-12   3.61452863065141E-11  -4.94891793861829E-15   0.00000000000000E+00   0.00000000000000E+00
      0.00000000000000E+00   0.00000000000000E+00  -2.71129069299868E-11  -9.03237937652697E-12  -3.61452863065138E-11
      4.94891793861841E-15
      4.40000000000000E-01
      4.96000000000000E-01   4.96000000000000E-01   0.00000000000000E+00   0.00000000000000E+00   5.43594750414796E-11
      1.81405522123876E-11   7.25000272538671E-11  -4.82690200200276E-15   0.00000000000000E+00   0.00000000000000E+00
      0.00000000000000E+00   0.00000000000000E+00  -5.43822116123986E-11  -1.81178156414669E-11  -7.25000272538655E-11
      4.82690200200273E-15
      4.60000000000000E-01
      5.14000000000000E-01   5.14000000000000E-01   0.00000000000000E+00   0.00000000000000E+00   1.09037829765796E-10
      3.63830085361860E-11   1.45420838301983E-10  -4.70204388855092E-15   0.00000000000000E+00   0.00000000000000E+00
      0.00000000000000E+00   0.00000000000000E+00  -1.09078955833990E-10  -3.63418824679901E-11  -1.45420838301980E-10
      4.70204388855091E-15
      4.80000000000000E-01
      5.32000000000000E-01   5.32000000000000E-01   0.00000000000000E+00   0.00000000000000E+00   2.18714106416037E-10
      7.29720770117711E-11   2.91686183427808E-10  -4.57408647354264E-15   0.00000000000000E+00   0.00000000000000E+00
      0.00000000000000E+00   0.00000000000000E+00  -2.18789688986673E-10  -7.28964944411310E-11  -2.91686183427804E-10
      4.57408647354260E-15
      5.00000000000000E-01
      5.50000000000000E-01   5.50000000000000E-01   0.00000000000000E+00   0.00000000000000E+00   4.38706112347870E-10
      1.46359709387288E-10   5.85065821735158E-10  -4.44270306197204E-15   0.00000000000000E+00   0.00000000000000E+00
      0.00000000000000E+00   0.00000000000000E+00  -4.38847043125515E-10  -1.46218778609631E-10  -5.85065821735146E-10
      4.44270306197204E-15
      5.20000000000000E-01
      5.68000000000000E-01   5.68000000000000E-01   0.00000000000000E+00   0.00000000000000E+00   8.79969036815186E-10
      2.93555624883142E-10   1.17352466169833E-09  -4.30748475172197E-15   0.00000000000000E+00   0.00000000000000E+00
      0.00000000000000E+00   0.00000000000000E+00  -8.80235197542291E-10  -2.93289464156050E-10  -1.17352466169834E-09
      4.30748475172213E-15
      5.40000000000000E-01
      5.86000000000000E-01   5.86000000000000E-01   0.00000000000000E+00   0.00000000000000E+00   1.76505085786787E-09
      5.88790689971379E-10   2.35384154783925E-09  -4.16792916012091E-15   0.00000000000000E+00   0.00000000000000E+00
      0.00000000000000E+00   0.00000000000000E+00  -1.76555910904735E-09  -5.88282438791853E-10  -2.35384154783921E-09
      4.16792916012100E-15
      5.60000000000000E-01
      6.04000000000000E-01   6.04000000000000E-01   0.00000000000000E+00   0.00000000000000E+00   3.54031674518427E-09
      1.18094797782434E-09   4.72126472300861E-09  -4.02343253388204E-15   0.00000000000000E+00   0.00000000000000E+00
      0.00000000000000E+00   0.00000000000000E+00  -3.54129639238038E-09  -1.17996833062817E-09  -4.72126472300855E-09
      4.02343253388216E-15
      5.80000000000000E-01
      6.22000000000000E-01   6.22000000000000E-01   0.00000000000000E+00   0.00000000000000E+00   7.10101294630227E-09
      2.36862953311794E-09   9.46964247942022E-09  -3.87328807059172E-15   0.00000000000000E+00   0.00000000000000E+00
      0.00000000000000E+00   0.00000000000000E+00  -7.10291591348110E-09  -2.36672656593920E-09  -9.46964247942030E-09
      3.87328807059173E-15
      6.00000000000000E-01
      6.40000000000000E-01   6.40000000000000E-01   0.00000000000000E+00   0.00000000000000E+00   1.42425786106829E-08
      4.75068391201703E-09   1.89932625227000E-08  -3.71669406299048E-15   0.00000000000000E+00   0.00000000000000E+00
      0.00000000000000E+00   0.00000000000000E+00  -1.42462986566560E-08  -4.74696386604407E-09  -1.89932625227001E-08
      3.71669406299049E-15
      6.20000000000000E-01
      6.58000000000000E-01   6.58000000000000E-01   0.00000000000000E+00   0.00000000000000E+00   2.85654585950408E-08
      9.52798964439961E-09   3.80934482394404E-08  -3.55277602846578E-15   0.00000000000000E+00   0.00000000000000E+00
      0.00000000000000E+00   0.00000000000000E+00  -2.85727680104391E-08  -9.52068022900138E-09  -3.80934482394405E-08
      3.55277602846575E-15
      6.40000000000000E-01
      6.76000000000000E-01   6.76000000000000E-01   0.00000000000000E+00   0.00000000000000E+00   5.72884041234320E-08
      1.91082440267939E-08   7.63966481502259E-08  -3.38062711419710E-15   0.00000000000000E+00   0.00000000000000E+00
      0.00000000000000E+00   0.00000000000000E+00  -5.73028241606733E-08  -1.90938239895524E-08  -7.63966481502257E-08
      3.38062711419714E-15
      6.60000000000000E-01
      6.94000000000000E-01   6.94000000000000E-01   0.00000000000000E+00   0.00000000000000E+00   1.14879639325688E-07
      3.83170535002931E-08   1.53196692825981E-07  -3.19937081462216E-15   0.00000000000000E+00   0.00000000000000E+00
      0.00000000000000E+00   0.00000000000000E+00  -1.14908174713717E-07  -3.82885181122645E-08  -1.53196692825981E-07
      3.19937081462222E-15
      6.80000000000000E-01
      7.12000000000000E-01   7.12000000000000E-01   0.00000000000000E+00   0.00000000000000E+00   2.30317259572307E-07
      7.68194399542264E-08   3.07136699526534E-07  -3.00825001810539E-15   0.00000000000000E+00   0.00000000000000E+00
      0.00000000000000E+00   0.00000000000000E+00  -2.30373849457454E-07  -7.67628500690748E-08  -3.07136699526529E-07
      3.00825001810536E-15
      7.00000000000000E-01
      7.30000000000000E-01   7.30000000000000E-01   0.00000000000000E+00   0.00000000000000E+00   4.61562206740593E-07
      1.53946806207305E-07   6.15509012947898E-07  -2.80674813304869E-15   0.00000000000000E+00   0.00000000000000E+00
      0.00000000000000E+00   0.00000000000000E+00  -4.61674563342229E-07  -1.53834449605657E-07  -6.15509012947886E-07
      2.80674813304860E-15
      7.20000000000000E-01
      7.48000000000000E-01   7.48000000000000E-01   0.00000000000000E+00   0.00000000000000E+00   9.24234838039895E-07
      3.08260671630600E-07   1.23249550967049E-06  -2.59475391549644E-15   0.00000000000000E+00   0.00000000000000E+00
      0.00000000000000E+00   0.00000000000000E+00  -9.24457882903271E-07  -3.08037626767220E-07  -1.23249550967049E-06
      2.59475391549644E-15
      7.40000000000000E-01
      7.66000000000000E-01   7.66000000000000E-01   0.00000000000000E+00   0.00000000000000E+00   1.84775090824121E-06
      6.16272900560383E-07   2.46402380880160E-06  -2.37279372160861E-15   0.00000000000000E+00   0.00000000000000E+00
      0.00000000000000E+00   0.00000000000000E+00  -1.84819270905408E-06  -6.15831099747530E-07  -2.46402380880160E-06
      2.37279372160863E-15
      7.60000000000000E-01
      7.84000000000000E-01   7.84000000000000E-01   0.00000000000000E+00   0.00000000000000E+00   3.68257916028356E-06
      1.22820901934973E-06   4.91078817963329E-06  -2.14237079401115E-15   0.00000000000000E+00   0.00000000000000E+00
      0.00000000000000E+00   0.00000000000000E+00  -3.68344923606198E-06  -1.22733894357131E-06  -4.91078817963329E-06
      2.14237079401111E-15
      7.80000000000000E-01
      8.02000000000000E-01   8.02000000000000E-01   0.00000000000000E+00   0.00000000000000E+00   7.29542596981804E-06
      2.43307129075182E-06   9.72849726056986E-06  -1.90645144096616E-15   0.00000000000000E+00   0.00000000000000E+00
      0.00000000000000E+00   0.00000000000000E+00  -7.29711893600168E-06  -2.43137832456819E-06  -9.72849726056987E-06
      1.90645144096618E-15
      8.00000000000000E-01
      8.20000000000000E-01   8.20000000000000E-01   0.00000000000000E+00   0.00000000000000E+00   1.42910018995165E-05
      4.76583433849775E-06   1.90568362380142E-05  -1.67005878876682E-15   0.00000000000000E+00   0.00000000000000E+00
      0.00000000000000E+00   0.00000000000000E+00  -1.42942219210521E-05  -4.76261431696174E-06  -1.90568362380138E-05
      1.67005878876681E-15
      8.20000000000000E-01
      8.38000000000000E-01   8.38000000000000E-01   0.00000000000000E+00   0.00000000000000E+00   2.74419600246502E-05
      9.15048462608461E-06   3.65924446507349E-05  -1.44065363852481E-15   0.00000000000000E+00   0.00000000000000E+00
      0.00000000000000E+00   0.00000000000000E+00  -2.74478510260532E-05  -9.14459362468103E-06  -3.65924446507342E-05
      1.44065363852482E-15
      8.40000000000000E-01
      8.56000000000000E-01   8.56000000000000E-01   0.00000000000000E+00   0.00000000000000E+00   5.10206691105904E-05
      1.70098702405660E-05   6.80305393511564E-05  -1.22750372117168E-15   0.00000000000000E+00   0.00000000000000E+00
      0.00000000000000E+00   0.00000000000000E+00  -5.10308358742057E-05  -1.69997034769511E-05  -6.80305393511568E-05
      1.22750372117167E-15
      8.60000000000000E-01
      8.74000000000000E-01   8.74000000000000E-01   0.00000000000000E+00   0.00000000000000E+00   9.05919911189162E-05
      3.01954345512061E-05   1.20787425670122E-04  -1.03929385619059E-15   0.00000000000000E+00   0.00000000000000E+00
      0.00000000000000E+00   0.00000000000000E+00  -9.06082824850333E-05  -3.01791431850887E-05  -1.20787425670122E-04
      1.03929385619059E-15
      8.80000000000000E-01
      8.92000000000000E-01   8.92000000000000E-01   0.00000000000000E+00   0.00000000000000E+00   1.52026722744317E-04
      5.06576657198154E-05   2.02684388464133E-04  -8.80933405393739E-16   0.00000000000000E+00   0.00000000000000E+00
      0.00000000000000E+00   0.00000000000000E+00  -1.52050850556798E-04  -5.06335379073301E-05  -2.02684388464128E-04
      8.80933405393738E-16
      9.00000000000000E-01
      9.10000000000000E-01   9.10000000000000E-01   0.00000000000000E+00   0.00000000000000E+00   2.40294062386195E-04
      8.00445703314489E-05   3.20338632717644E-04  -7.52235739112941E-16   0.00000000000000E+00   0.00000000000000E+00
      0.00000000000000E+00   0.00000000000000E+00  -2.40327330585089E-04  -8.00113021325562E-05  -3.20338632717645E-04
      7.52235739112940E-16
      9.20000000000000E-01
      9.28000000000000E-01   9.28000000000000E-01   0.00000000000000E+00   0.00000000000000E+00   3.58876173107008E-04
      1.19508654882567E-04   4.78384827989574E-04  -6.49404402562103E-16   0.00000000000000E+00   0.00000000000000E+00
      0.00000000000000E+00   0.00000000000000E+00  -3.58919446549605E-04  -1.19465381439961E-04  -4.78384827989567E-04
      6.49404402562104E-16
      9.40000000000001E-01