DF-ISE text

Info {
  version   = 1.0
  type      = xyplot
  datasets  = [
    "time"
    "n OuterVoltage" "n InnerVoltage" "n QuasiFermiPotential" "n DisplacementCurrent" "n eCurrent"
    "n hCurrent" "n TotalCurrent" "n Charge" "p OuterVoltage" "p InnerVoltage"
    "p QuasiFermiPotential" "p DisplacementCurrent" "p eCurrent" "p hCurrent" "p TotalCurrent"
    "p Charge" ]
  functions = [
    Time
    OuterVoltage InnerVoltage QuasiFermiPotential DisplacementCurrent eCurrent
    hCurrent TotalCurrent Charge OuterVoltage InnerVoltage
    QuasiFermiPotential DisplacementCurrent eCurrent hCurrent TotalCurrent
    Charge ]
}

Data {
      0.00000000000000E+00
      0.00000000000000E+00   0.00000000000000E+00   0.00000000000000E+00   0.00000000000000E+00  -6.53170090471869E-03
      4.41343580961344E-18  -6.53170090471868E-03  -2.18074626254273E-17   2.00000000000000E+00   2.00000000000000E+00
      0.00000000000000E+00   0.00000000000000E+00   4.67265773301826E-03   1.85904317170042E-03   6.53170090471868E-03
      2.18074626254273E-17
      2.00000000000000E-02
      0.00000000000000E+00   0.00000000000000E+00   0.00000000000000E+00   0.00000000000000E+00  -5.69292049158406E-03
     -7.91834798464166E-16  -5.69292049158486E-03  -1.90940208276786E-17   1.86000000000000E+00   1.86000000000000E+00
      0.00000000000000E+00   0.00000000000000E+00   4.08285200207641E-03   1.61006848950845E-03   5.69292049158486E-03
      1.90940208276786E-17
      4.00000000000000E-02
      0.00000000000000E+00   0.00000000000000E+00   0.00000000000000E+00   0.00000000000000E+00  -4.84403441987109E-03
     -1.95377653693269E-14  -4.84403441989063E-03  -1.62073103796536E-17   1.72000000000000E+00   1.72000000000000E+00
      0.00000000000000E+00   0.00000000000000E+00   3.48488154815051E-03   1.35915287174013E-03   4.84403441989064E-03
      1.62073103796536E-17
      6.00000000000000E-02
      0.00000000000000E+00   0.00000000000000E+00   0.00000000000000E+00   0.00000000000000E+00  -3.98545970355439E-03
      3.24592808090756E-18  -3.98545970355438E-03  -1.30785179156101E-17   1.58000000000000E+00   1.58000000000000E+00
      0.00000000000000E+00   0.00000000000000E+00   2.87872479829758E-03   1.10673490525680E-03   3.98545970355438E-03
      1.30785179156100E-17
      8.00000000000000E-02
      0.00000000000000E+00   0.00000000000000E+00   0.00000000000000E+00   0.00000000000000E+00  -3.11871058459050E-03
     -5.66146131271283E-18  -3.11871058459051E-03  -9.58611753611324E-18   1.44000000000000E+00   1.44000000000000E+00
      0.00000000000000E+00   0.00000000000000E+00   2.26495685420523E-03   8.53753730385285E-04   3.11871058459052E-03
      9.58611753611328E-18
      1.00000000000000E-01
      0.00000000000000E+00   0.00000000000000E+00   0.00000000000000E+00   0.00000000000000E+00  -2.24682851664143E-03
     -1.72877412892463E-16  -2.24682851664160E-03  -5.47621460820937E-18   1.30000000000000E+00   1.30000000000000E+00
      0.00000000000000E+00   0.00000000000000E+00   1.64488313273380E-03   6.01945383907797E-04   2.24682851664160E-03
      5.47621460820925E-18
      1.20000000000000E-01
      0.00000000000000E+00   0.00000000000000E+00   0.00000000000000E+00   0.00000000000000E+00  -1.38051929269796E-03
     -2.93220342485878E-14  -1.38051929272728E-03  -8.95061716818017E-20   1.16000000000000E+00   1.16000000000000E+00
      0.00000000000000E+00   0.00000000000000E+00   1.02448070210894E-03   3.56038590618342E-04   1.38051929272728E-03
      8.95061716818260E-20
      1.40000000000000E-01
      0.00000000000000E+00   0.00000000000000E+00   0.00000000000000E+00   0.00000000000000E+00  -5.95208398190125E-04
     -1.05878661300695E-18  -5.95208398190126E-04   8.72559179137536E-18   1.02000000000000E+00   1.02000000000000E+00
      0.00000000000000E+00   0.00000000000000E+00   4.54254378583601E-04   1.40954019606524E-04   5.95208398190125E-04
     -8.72559179137543E-18
      1.60000000000000E-01
      0.00000000000000E+00   0.00000000000000E+00   0.00000000000000E+00   0.00000000000000E+00  -1.06368615918195E-04
      1.00382114878716E-15  -1.06368615917191E-04   3.31628251676217E-17   8.80000000000000E-01   8.80000000000000E-01
      0.00000000000000E+00   0.00000000000000E+00   8.64602218345588E-05   1.99083940826322E-05   1.06368615917191E-04
     -3.31628251676218E-17
      1.80000000000000E-01
      0.00000000000000E+00   0.00000000000000E+00   0.00000000000000E+00   0.00000000000000E+00  -2.12783815220618E-06
     -1.18671779867837E-20  -2.12783815220620E-06   1.40383904177697E-16   7.40000000000000E-01   7.40000000000000E-01
      0.00000000000000E+00   0.00000000000000E+00   1.83388415850957E-06   2.93953993696621E-07   2.12783815220619E-06
     -1.40383904177697E-16
      2.00000000000000E-01
      0.00000000000000E+00   0.00000000000000E+00   0.00000000000000E+00   0.00000000000000E+00  -1.03088700486030E-08
      7.69291578942359E-22  -1.03088700486023E-08   2.92964669342564E-16   6.00000000000000E-01   6.00000000000000E-01
      0.00000000000000E+00   0.00000000000000E+00   8.89473852262224E-09   1.41413152598002E-09   1.03088700486023E-08
     -2.92964669342564E-16
      2.20000000000000E-01
      0.00000000000000E+00   0.00000000000000E+00   0.00000000000000E+00   0.00000000000000E+00  -4.67877825819980E-11
      5.67394371908297E-23  -4.67877825819413E-11   4.15545679620605E-16   4.60000000000000E-01   4.60000000000000E-01
      0.00000000000000E+00   0.00000000000000E+00   4.02964360022660E-11   6.49134657967519E-12   4.67877825819412E-11
     -4.15545679620604E-16
      2.40000000000000E-01
      0.00000000000000E+00   0.00000000000000E+00   0.00000000000000E+00   0.00000000000000E+00  -2.11940322396518E-13
     -3.15494509956006E-24  -2.11940322399673E-13   5.20022989579575E-16   3.20000000000000E-01   3.20000000000000E-01
      0.00000000000000E+00   0.00000000000000E+00   1.81741861678819E-13   3.01984607208532E-14   2.11940322399673E-13
     -5.20022989579576E-16
      2.60000000000000E-01
      0.00000000000000E+00   0.00000000000000E+00   0.00000000000000E+00   0.00000000000000E+00  -9.85420180515923E-16
     -3.60904112044981E-25  -9.85420180876827E-16   6.11861976720331E-16   1.80000000000000E-01   1.80000000000000E-01
      0.00000000000000E+00   0.00000000000000E+00   8.17011644374043E-16   1.68408536502782E-16   9.85420180876826E-16
     -6.11861976720333E-16
      2.80000000000000E-01
      0.00000000000000E+00   0.00000000000000E+00   0.00000000000000E+00   0.00000000000000E+00  -4.68386446752638E-18
      3.76530037189728E-28  -4.68386446714985E-18   6.93894969397038E-16   4.00000000000003E-02   4.00000000000003E-02
      0.00000000000000E+00   0.00000000000000E+00   2.88993099528491E-18   1.79393347186493E-18   4.68386446714984E-18
     -6.93894969397039E-16
      3.00000000000000E-01
      0.00000000000000E+00   0.00000000000000E+00   0.00000000000000E+00   0.00000000000000E+00   2.35330912736262E-18
      3.77618345143368E-24   2.35331290354608E-18   7.69804261400778E-16  -1.00000000000000E-01  -1.00000000000000E-01
      0.00000000000000E+00   0.00000000000000E+00  -7.69027930325376E-19  -1.58428497322070E-18  -2.35331290354607E-18
     -7.69804261400778E-16
      3.20000000000000E-01
      0.00000000000000E+00   0.00000000000000E+00   0.00000000000000E+00   0.00000000000000E+00   3.47011933649557E-18
      1.25236622403929E-25   3.47011946173219E-18   8.41838203199834E-16  -2.40000000000000E-01  -2.40000000000000E-01
      0.00000000000000E+00   0.00000000000000E+00  -7.95208394909097E-19  -2.67491106682310E-18  -3.47011946173220E-18
     -8.41838203199833E-16
      3.40000000000000E-01
      0.00000000000000E+00   0.00000000000000E+00   0.00000000000000E+00   0.00000000000000E+00   4.38610243019429E-18
      6.76103867463416E-26   4.38610249780467E-18   9.10962249757669E-16  -3.80000000000000E-01  -3.80000000000000E-01
      0.00000000000000E+00   0.00000000000000E+00  -8.00696813398085E-19  -3.58540568440660E-18  -4.38610249780468E-18
     -9.10962249757670E-16
      3.60000000000000E-01
      0.00000000000000E+00   0.00000000000000E+00   0.00000000000000E+00   0.00000000000000E+00   5.43089324514556E-18
      2.25278141180986E-26   5.43089326767337E-18   9.77571230512668E-16  -5.20000000000000E-01  -5.20000000000000E-01
      0.00000000000000E+00   0.00000000000000E+00  -8.05677402410747E-19  -4.62521586526262E-18  -5.43089326767336E-18
     -9.77571230512670E-16
      3.80000000000000E-01
      0.00000000000000E+00   0.00000000000000E+00   0.00000000000000E+00   0.00000000000000E+00   6.58662238739766E-18
      7.55920683728493E-26   6.58662246298972E-18   1.04180727651455E-15  -6.60000000000001E-01  -6.60000000000001E-01
      0.00000000000000E+00   0.00000000000000E+00  -8.10177929262482E-19  -5.77644453372721E-18  -6.58662246298969E-18
     -1.04180727651455E-15
      4.00000000000000E-01
      0.00000000000000E+00   0.00000000000000E+00   0.00000000000000E+00   0.00000000000000E+00   7.58570104026258E-18
      3.05178284621193E-26   7.58570107078041E-18   1.10371996283651E-15  -8.00000000000001E-01  -8.00000000000001E-01
      0.00000000000000E+00   0.00000000000000E+00  -8.14939330880813E-19  -6.77076173989960E-18  -7.58570107078041E-18
     -1.10371996283651E-15
      4.20000000000000E-01
      0.00000000000000E+00   0.00000000000000E+00   0.00000000000000E+00   0.00000000000000E+00   8.42771235922836E-18
     -1.59550466776605E-26   8.42771234327331E-18   1.16342774859869E-15  -9.40000000000001E-01  -9.40000000000001E-01
      0.00000000000000E+00   0.00000000000000E+00  -8.20266883016602E-19  -7.60744546025672E-18  -8.42771234327332E-18
     -1.16342774859869E-15
      4.40000000000000E-01
      0.00000000000000E+00   0.00000000000000E+00   0.00000000000000E+00   0.00000000000000E+00   9.12754954591708E-18
      1.32631690124698E-26   9.12754955918025E-18   1.22120357233309E-15  -1.08000000000000E+00  -1.08000000000000E+00
      0.00000000000000E+00   0.00000000000000E+00  -8.24747553425587E-19  -8.30280200575467E-18  -9.12754955918025E-18
     -1.22120357233309E-15
      4.60000000000000E-01
      0.00000000000000E+00   0.00000000000000E+00   0.00000000000000E+00   0.00000000000000E+00   9.68511959378558E-18
     -4.00340605013156E-27   9.68511958978217E-18   1.27737764663496E-15  -1.22000000000000E+00  -1.22000000000000E+00
      0.00000000000000E+00   0.00000000000000E+00  -8.28951233249827E-19  -8.85616835653237E-18  -9.68511958978219E-18
     -1.27737764663496E-15
      4.80000000000000E-01
      0.00000000000000E+00   0.00000000000000E+00   0.00000000000000E+00   0.00000000000000E+00   1.01965918090689E-17
     -6.01558547531853E-27   1.01965918030533E-17   1.33221822541648E-15  -1.36000000000000E+00  -1.36000000000000E+00
      0.00000000000000E+00   0.00000000000000E+00  -8.32991437144871E-19  -9.36360036590838E-18  -1.01965918030533E-17
     -1.33221822541648E-15
      5.00000000000000E-01
      0.00000000000000E+00   0.00000000000000E+00   0.00000000000000E+00   0.00000000000000E+00   1.06419613013468E-17
     -3.85708138121826E-27   1.06419612974898E-17   1.38590874372896E-15  -1.50000000000000E+00  -1.50000000000000E+00
      0.00000000000000E+00   0.00000000000000E+00  -8.36914291613257E-19  -9.80504700587648E-18  -1.06419612974897E-17
     -1.38590874372896E-15
      5.20000000000000E-01
      0.00000000000000E+00   0.00000000000000E+00   0.00000000000000E+00   0.00000000000000E+00   1.10453940865030E-17
     -4.29690586055207E-27   1.10453940822061E-17   1.43857039905676E-15  -1.64000000000000E+00  -1.64000000000000E+00
      0.00000000000000E+00   0.00000000000000E+00  -8.40736451607991E-19  -1.02046576305981E-17  -1.10453940822061E-17
     -1.43857039905676E-15
      5.40000000000000E-01
      0.00000000000000E+00   0.00000000000000E+00   0.00000000000000E+00   0.00000000000000E+00   1.15808935788845E-17
     -1.74546155707751E-26   1.15808935614299E-17   1.49028465474200E-15  -1.78000000000000E+00  -1.78000000000000E+00
      0.00000000000000E+00   0.00000000000000E+00  -8.44461213369653E-19  -1.07364323480603E-17  -1.15808935614299E-17
     -1.49028465474200E-15
      5.60000000000000E-01
      0.00000000000000E+00   0.00000000000000E+00   0.00000000000000E+00   0.00000000000000E+00   1.23300985837943E-17
      3.96171375356491E-27   1.23300985877560E-17   1.54110806300902E-15  -1.92000000000000E+00  -1.92000000000000E+00
      0.00000000000000E+00   0.00000000000000E+00  -8.48085102146676E-19  -1.14820134856094E-17  -1.23300985877561E-17
     -1.54110806300903E-15
      5.80000000000000E-01
      0.00000000000000E+00   0.00000000000000E+00   0.00000000000000E+00   0.00000000000000E+00   1.31954003800550E-17
      2.17504503085045E-27   1.31954003822300E-17   1.59108070489836E-15  -2.06000000000000E+00  -2.06000000000000E+00
      0.00000000000000E+00   0.00000000000000E+00  -8.51601123486000E-19  -1.23437992587441E-17  -1.31954003822301E-17
     -1.59108070489836E-15
      6.00000000000000E-01
      0.00000000000000E+00   0.00000000000000E+00   0.00000000000000E+00   0.00000000000000E+00   1.40560268902308E-17
     -5.23439703477782E-27   1.40560268849964E-17   1.64022961707308E-15  -2.20000000000000E+00  -2.20000000000000E+00
      0.00000000000000E+00   0.00000000000000E+00  -8.55009682896300E-19  -1.32010172021001E-17  -1.40560268849964E-17
     -1.64022961707308E-15
      6.20000000000000E-01
      0.00000000000000E+00   0.00000000000000E+00   0.00000000000000E+00   0.00000000000000E+00   1.48365357397237E-17
     -4.63604260394412E-27   1.48365357350876E-17   1.68857369700395E-15  -2.34000000000000E+00  -2.34000000000000E+00
      0.00000000000000E+00   0.00000000000000E+00  -8.58318255247610E-19  -1.39782174798400E-17  -1.48365357350876E-17
     -1.68857369700395E-15
      6.40000000000000E-01
      0.00000000000000E+00   0.00000000000000E+00   0.00000000000000E+00   0.00000000000000E+00   1.55336875389592E-17
      1.46864076489195E-27   1.55336875404278E-17   1.73613524034114E-15  -2.48000000000000E+00  -2.48000000000000E+00
      0.00000000000000E+00   0.00000000000000E+00  -8.61535918530365E-19  -1.46721516218974E-17  -1.55336875404278E-17
     -1.73613524034113E-15
      6.60000000000000E-01
      0.00000000000000E+00   0.00000000000000E+00   0.00000000000000E+00   0.00000000000000E+00   1.61709968457015E-17
     -4.42667903926996E-28   1.61709968452588E-17   1.78295192965586E-15  -2.62000000000000E+00  -2.62000000000000E+00
      0.00000000000000E+00   0.00000000000000E+00  -8.64669761778561E-19  -1.53063270834803E-17  -1.61709968452589E-17
     -1.78295192965586E-15
      6.80000000000000E-01
      0.00000000000000E+00   0.00000000000000E+00   0.00000000000000E+00   0.00000000000000E+00   1.67130392505895E-17
     -2.96996826874674E-27   1.67130392476196E-17   1.82907867795898E-15  -2.76000000000000E+00  -2.76000000000000E+00
      0.00000000000000E+00   0.00000000000000E+00  -8.67726351585040E-19  -1.58453128960345E-17  -1.67130392476196E-17
     -1.82907867795898E-15
      7.00000000000000E-01
      0.00000000000000E+00   0.00000000000000E+00   0.00000000000000E+00   0.00000000000000E+00   1.71589110340483E-17
      4.36628119131051E-27   1.71589110384146E-17   1.87457831159282E-15  -2.90000000000000E+00  -2.90000000000000E+00
      0.00000000000000E+00   0.00000000000000E+00  -8.70712303084338E-19  -1.62881987353303E-17  -1.71589110384146E-17
     -1.87457831159282E-15
      7.20000000000000E-01
      0.00000000000000E+00   0.00000000000000E+00   0.00000000000000E+00   0.00000000000000E+00   1.75124622610723E-17
     -6.12895072653170E-27   1.75124622549434E-17   1.91950988816418E-15  -3.04000000000000E+00  -3.04000000000000E+00
      0.00000000000000E+00   0.00000000000000E+00  -8.73638028839716E-19  -1.66388242261037E-17  -1.75124622549434E-17
     -1.91950988816418E-15
      7.40000000000000E-01
      0.00000000000000E+00   0.00000000000000E+00   0.00000000000000E+00   0.00000000000000E+00   1.78512726166100E-17
      3.28837619382009E-28   1.78512726169388E-17   1.96392206415611E-15  -3.18000000000000E+00  -3.18000000000000E+00
      0.00000000000000E+00   0.00000000000000E+00  -8.76516252136505E-19  -1.69747563648023E-17  -1.78512726169388E-17
     -1.96392206415611E-15
      7.60000000000000E-01
      0.00000000000000E+00   0.00000000000000E+00   0.00000000000000E+00   0.00000000000000E+00   1.82680715678419E-17
      1.10042592857083E-27   1.82680715689423E-17   2.00785201174982E-15  -3.32000000000000E+00  -3.32000000000000E+00
      0.00000000000000E+00   0.00000000000000E+00  -8.79359746711387E-19  -1.73887118222309E-17  -1.82680715689423E-17
     -2.00785201174981E-15
      7.80000000000000E-01
      0.00000000000000E+00   0.00000000000000E+00   0.00000000000000E+00   0.00000000000000E+00   1.87120849813698E-17
      6.69743972940612E-28   1.87120849820395E-17   2.05132701596279E-15  -3.46000000000000E+00  -3.46000000000000E+00
      0.00000000000000E+00   0.00000000000000E+00  -8.82178471268577E-19  -1.78299065107710E-17  -1.87120849820396E-17
     -2.05132701596278E-15
      8.00000000000000E-01
      0.00000000000000E+00   0.00000000000000E+00   0.00000000000000E+00   0.00000000000000E+00   1.91338718487378E-17
      1.57331133876134E-27   1.91338718503111E-17   2.09436662286104E-15  -3.60000000000000E+00  -3.60000000000000E+00
      0.00000000000000E+00   0.00000000000000E+00  -8.84977807647696E-19  -1.82488940426635E-17  -1.91338718503112E-17
     -2.09436662286104E-15
      8.20000000000000E-01
      0.00000000000000E+00   0.00000000000000E+00   0.00000000000000E+00   0.00000000000000E+00   1.95959388427139E-17
     -3.75247341327164E-28   1.95959388423387E-17   2.13698476234594E-15  -3.74000000000000E+00  -3.74000000000000E+00
      0.00000000000000E+00   0.00000000000000E+00  -8.87757698493753E-19  -1.87081811438449E-17  -1.95959388423386E-17
     -2.13698476234594E-15
      8.40000000000000E-01
      0.00000000000000E+00   0.00000000000000E+00   0.00000000000000E+00   0.00000000000000E+00   2.02006669304528E-17
      7.25451641626698E-28   2.02006669311782E-17   2.17919190927015E-15  -3.88000000000000E+00  -3.88000000000000E+00
      0.00000000000000E+00   0.00000000000000E+00  -8.90513129159988E-19  -1.93101538020182E-17  -2.02006669311782E-17
     -2.17919190927015E-15
      8.60000000000000E-01
      0.00000000000000E+00   0.00000000000000E+00   0.00000000000000E+00   0.00000000000000E+00   2.09298839501650E-17
      1.80200513328283E-28   2.09298839503452E-17   2.22099705768096E-15  -4.02000000000000E+00  -4.02000000000000E+00
      0.00000000000000E+00   0.00000000000000E+00  -8.93235978625263E-19  -2.00366479717200E-17  -2.09298839503452E-17
     -2.22099705768096E-15
      8.80000000000000E-01
      0.00000000000000E+00   0.00000000000000E+00   0.00000000000000E+00   0.00000000000000E+00   2.16690892982626E-17
     -2.22704901001910E-28   2.16690892980398E-17   2.26240893945925E-15  -4.16000000000000E+00  -4.16000000000000E+00
      0.00000000000000E+00   0.00000000000000E+00  -8.95917866603992E-19  -2.07731714314359E-17  -2.16690892980399E-17
     -2.26240893945925E-15
      9.00000000000000E-01
      0.00000000000000E+00   0.00000000000000E+00   0.00000000000000E+00   0.00000000000000E+00   2.23299745287504E-17
      4.39082855597909E-28   2.23299745291894E-17   2.30343636173069E-15  -4.30000000000000E+00  -4.30000000000000E+00
      0.00000000000000E+00   0.00000000000000E+00  -8.98552678996427E-19  -2.14314218501931E-17  -2.23299745291895E-17
     -2.30343636173069E-15
      9.20000000000000E-01
      0.00000000000000E+00   0.00000000000000E+00   0.00000000000000E+00   0.00000000000000E+00   2.28848228350521E-17
     -9.93014361160722E-30   2.28848228350422E-17   2.34408835173947E-15  -4.44000000000000E+00  -4.44000000000000E+00
      0.00000000000000E+00   0.00000000000000E+00  -9.01137368033496E-19  -2.19836854670087E-17  -2.28848228350422E-17
     -2.34408835173947E-15
      9.40000000000001E-01
      0.00000000000000E+00   0.00000000000000E+00   0.00000000000000E+00   0.00000000000000E+00   2.33849862034543E-17
      1.13142767157298E-28   2.33849862035675E-17   2.38437482784528E-15  -4.58000000000000E+00  -4.58000000000000E+00
      0.00000000000000E+00   0.00000000000000E+00  -9.03671515422353E-19  -2.24813146881452E-17  -2.33849862035675E-17
     -2.38437482784528E-15
      9.60000000000001E-01
      0.00000000000000E+00   0.00000000000000E+00   0.00000000000000E+00   0.00000000000000E+00   2.38894925756440E-17
      2.31864733487315E-28   2.38894925758759E-17   2.42430765716723E-15  -4.72000000000000E+00  -4.72000000000000E+00
      0.00000000000000E+00   0.00000000000000E+00  -9.06156396667753E-19  -2.29833361792081E-17  -2.38894925758759E-17
     -2.42430765716723E-15
      9.80000000000001E-01
      0.00000000000000E+00   0.00000000000000E+00   0.00000000000000E+00   0.00000000000000E+00   2.44047385781960E-17
     -1.30525375152827E-28   2.44047385780655E-17   2.46390125833617E-15  -4.86000000000000E+00  -4.86000000000000E+00
      0.00000000000000E+00   0.00000000000000E+00  -9.08594577256837E-19  -2.34961440008087E-17  -2.44047385780655E-17
     -2.46390125833617E-15
      1.00000000000000E+00
      0.00000000000000E+00   0.00000000000000E+00   0.00000000000000E+00   0.00000000000000E+00   2.49325158495883E-17
     -1.10846171186884E-28   2.49325158494775E-17   2.50317208759216E-15  -5.00000000000000E+00  -5.00000000000000E+00
      0.00000000000000E+00   0.00000000000000E+00  -9.10990102035480E-19  -2.40215257474419E-17  -2.49325158494774E-17
     -2.50317208759216E-15
      1.00000000000000E-03
      0.00000000000000E+00   0.00000000000000E+00   0.00000000000000E+00   0.00000000000000E+00   2.49515694408139E-17
      2.57765286537364E-34   2.49515694408139E-17   2.50456886251324E-15  -5.00500000000000E+00  -5.00500000000000E+00
      0.00000000000000E+00   0.00000000000000E+00  -9.11074935011182E-19  -2.40404945058026E-17  -2.49515694408138E-17
     -2.50456886251325E-15
      2.00000000000000E-03
      0.00000000000000E+00   0.00000000000000E+00   0.00000000000000E+00   0.00000000000000E+00   2.49706284714996E-17
     -1.42942057887975E-29   2.49706284714853E-17   2.50596524830251E-15  -5.01000000000000E+00  -5.01000000000000E+00
      0.00000000000000E+00   0.00000000000000E+00  -9.11159722305866E-19  -2.40594687491795E-17  -2.49706284714853E-17
     -2.50596524830251E-15
      3.00000000000000E-03
      0.00000000000000E+00   0.00000000000000E+00   0.00000000000000E+00   0.00000000000000E+00   2.49896918841850E-17
     -1.44462935948127E-29   2.49896918841706E-17   2.50736124571680E-15  -5.01500000000000E+00  -5.01500000000000E+00
      0.00000000000000E+00   0.00000000000000E+00  -9.11244463158692E-19  -2.40784474210119E-17  -2.49896918841705E-17
     -2.50736124571681E-15
      4.00000000000000E-03
      0.00000000000000E+00   0.00000000000000E+00   0.00000000000000E+00   0.00000000000000E+00   2.50087586415223E-17
     -1.45976646875922E-29   2.50087586415077E-17   2.50875685551675E-15  -5.02000000000000E+00  -5.02000000000000E+00
      0.00000000000000E+00   0.00000000000000E+00  -9.11329157883210E-19  -2.40974294836246E-17  -2.50087586415078E-17
     -2.50875685551675E-15
      5.00000000000000E-03
      0.00000000000000E+00   0.00000000000000E+00   0.00000000000000E+00   0.00000000000000E+00   2.50278277320391E-17
     -1.47507552634417E-29   2.50278277320244E-17   2.51015207845848E-15  -5.02500000000000E+00  -5.02500000000000E+00
      0.00000000000000E+00   0.00000000000000E+00  -9.11413806801286E-19  -2.41164139252231E-17  -2.50278277320244E-17
     -2.51015207845848E-15
      6.00000000000000E-03
      0.00000000000000E+00   0.00000000000000E+00   0.00000000000000E+00   0.00000000000000E+00   2.50468981771716E-17
     -1.49068902988035E-29   2.50468981771567E-17   2.51154691529556E-15  -5.03000000000000E+00  -5.03000000000000E+00
      0.00000000000000E+00   0.00000000000000E+00  -9.11498410237303E-19  -2.41353997669194E-17  -2.50468981771567E-17
     -2.51154691529556E-15
      7.00000000000000E-03
      0.00000000000000E+00   0.00000000000000E+00   0.00000000000000E+00   0.00000000000000E+00   2.50659690379350E-17
     -1.50649177085860E-29   2.50659690379200E-17   2.51294136677894E-15  -5.03500000000000E+00  -5.03500000000000E+00
      0.00000000000000E+00   0.00000000000000E+00  -9.11582968517984E-19  -2.41543860694020E-17  -2.50659690379199E-17
     -2.51294136677894E-15
      8.00000000000000E-03
      0.00000000000000E+00   0.00000000000000E+00   0.00000000000000E+00   0.00000000000000E+00   2.50850394212625E-17
     -1.52250968298152E-29   2.50850394212473E-17   2.51433543365682E-15  -5.04000000000000E+00  -5.04000000000000E+00
      0.00000000000000E+00   0.00000000000000E+00  -9.11667481973717E-19  -2.41733719392736E-17  -2.50850394212473E-17
     -2.51433543365682E-15
      9.00000000000000E-03
      0.00000000000000E+00   0.00000000000000E+00   0.00000000000000E+00   0.00000000000000E+00   2.51041084859630E-17
     -1.53838645289267E-29   2.51041084859476E-17   2.51572911667461E-15  -5.04500000000000E+00  -5.04500000000000E+00
      0.00000000000000E+00   0.00000000000000E+00  -9.11751950936834E-19  -2.41923565350107E-17  -2.51041084859476E-17
     -2.51572911667462E-15
      1.00000000000000E-02
      0.00000000000000E+00   0.00000000000000E+00   0.00000000000000E+00   0.00000000000000E+00   2.51231754482617E-17
     -1.55472814336332E-29   2.51231754482461E-17   2.51712241657480E-15  -5.05000000000000E+00  -5.05000000000000E+00
      0.00000000000000E+00   0.00000000000000E+00  -9.11836375742521E-19  -2.42113390725036E-17  -2.51231754482461E-17
     -2.51712241657479E-15
      1.10000000000000E-02
      0.00000000000000E+00   0.00000000000000E+00   0.00000000000000E+00   0.00000000000000E+00   2.51422395868857E-17
     -1.57123172300783E-29   2.51422395868700E-17   2.51851533409688E-15  -5.05500000000000E+00  -5.05500000000000E+00
      0.00000000000000E+00   0.00000000000000E+00  -9.11920756728365E-19  -2.42303188301417E-17  -2.51422395868700E-17
     -2.51851533409688E-15
      1.20000000000000E-02
      0.00000000000000E+00   0.00000000000000E+00   0.00000000000000E+00   0.00000000000000E+00   2.51613002476657E-17
     -1.58755675303923E-29   2.51613002476499E-17   2.51990786997730E-15  -5.06000000000000E+00  -5.06000000000000E+00
      0.00000000000000E+00   0.00000000000000E+00  -9.12005094235103E-19  -2.42492951534147E-17  -2.51613002476499E-17
     -2.51990786997729E-15
      1.30000000000000E-02
      0.00000000000000E+00   0.00000000000000E+00   0.00000000000000E+00   0.00000000000000E+00   2.51803568476275E-17
     -1.60435503384975E-29   2.51803568476114E-17   2.52130002494933E-15  -5.06500000000000E+00  -5.06500000000000E+00
      0.00000000000000E+00   0.00000000000000E+00  -9.12089388605017E-19  -2.42682674590064E-17  -2.51803568476114E-17
     -2.52130002494933E-15
      1.40000000000000E-02
      0.00000000000000E+00   0.00000000000000E+00   0.00000000000000E+00   0.00000000000000E+00   2.51994088785594E-17
     -1.62136565667375E-29   2.51994088785431E-17   2.52269179974302E-15  -5.07000000000000E+00  -5.07000000000000E+00
      0.00000000000000E+00   0.00000000000000E+00  -9.12173640183570E-19  -2.42872352383596E-17  -2.51994088785432E-17
     -2.52269179974303E-15
      1.50000000000000E-02
      0.00000000000000E+00   0.00000000000000E+00   0.00000000000000E+00   0.00000000000000E+00   2.52184559100402E-17
     -1.63855985867744E-29   2.52184559100238E-17   2.52408319508514E-15  -5.07500000000000E+00  -5.07500000000000E+00
      0.00000000000000E+00   0.00000000000000E+00  -9.12257849318192E-19  -2.43061980607057E-17  -2.52184559100239E-17
     -2.52408319508514E-15
      1.60000000000000E-02
      0.00000000000000E+00   0.00000000000000E+00   0.00000000000000E+00   0.00000000000000E+00   2.52374975919239E-17
     -1.65600868248855E-29   2.52374975919073E-17   2.52547421169902E-15  -5.08000000000000E+00  -5.08000000000000E+00
      0.00000000000000E+00   0.00000000000000E+00  -9.12342016359075E-19  -2.43251555755483E-17  -2.52374975919074E-17
     -2.52547421169902E-15
      1.70000000000000E-02
      0.00000000000000E+00   0.00000000000000E+00   0.00000000000000E+00   0.00000000000000E+00   2.52565336562768E-17
     -1.67355841197891E-29   2.52565336562600E-17   2.52686485030457E-15  -5.08500000000000E+00  -5.08500000000000E+00
      0.00000000000000E+00   0.00000000000000E+00  -9.12426141658517E-19  -2.43441075146015E-17  -2.52565336562600E-17
     -2.52686485030457E-15
      1.80000000000000E-02
      0.00000000000000E+00   0.00000000000000E+00   0.00000000000000E+00   0.00000000000000E+00   2.52755639187774E-17
     -1.69137942371596E-29   2.52755639187605E-17   2.52825511161816E-15  -5.09000000000000E+00  -5.09000000000000E+00
      0.00000000000000E+00   0.00000000000000E+00  -9.12510225571098E-19  -2.43630536931895E-17  -2.52755639187605E-17
     -2.52825511161817E-15
      1.90000000000000E-02
      0.00000000000000E+00   0.00000000000000E+00   0.00000000000000E+00   0.00000000000000E+00   2.52945882795853E-17
     -1.70954527511072E-29   2.52945882795682E-17   2.52964499635258E-15  -5.09500000000000E+00  -5.09500000000000E+00
      0.00000000000000E+00   0.00000000000000E+00  -9.12594268453494E-19  -2.43819940111146E-17  -2.52945882795681E-17
     -2.52964499635258E-15
      2.00000000000000E-02
      0.00000000000000E+00   0.00000000000000E+00   0.00000000000000E+00   0.00000000000000E+00   2.53136067236957E-17
     -1.72818532032834E-29   2.53136067236784E-17   2.53103450521692E-15  -5.10000000000000E+00  -5.10000000000000E+00
      0.00000000000000E+00   0.00000000000000E+00  -9.12678270664918E-19  -2.44009284530134E-17  -2.53136067236783E-17
     -2.53103450521692E-15
      2.10000000000000E-02
      0.00000000000000E+00   0.00000000000000E+00   0.00000000000000E+00   0.00000000000000E+00   2.53326193207986E-17