DF-ISE text

Info {
  version   = 1.0
  type      = xyplot
  datasets  = [
    "time"
    "n OuterVoltage" "n InnerVoltage" "n QuasiFermiPotential" "n DisplacementCurrent" "n eCurrent"
    "n hCurrent" "n TotalCurrent" "n Charge" "p OuterVoltage" "p InnerVoltage"
    "p QuasiFermiPotential" "p DisplacementCurrent" "p eCurrent" "p hCurrent" "p TotalCurrent"
    "p Charge" ]
  functions = [
    Time
    OuterVoltage InnerVoltage QuasiFermiPotential DisplacementCurrent eCurrent
    hCurrent TotalCurrent Charge OuterVoltage InnerVoltage
    QuasiFermiPotential DisplacementCurrent eCurrent hCurrent TotalCurrent
    Charge ]
}

Data {
      0.00000000000000E+00
      0.00000000000000E+00   0.00000000000000E+00   0.00000000000000E+00   0.00000000000000E+00  -1.73729483190407E-22
      1.62053993720971E-25  -1.73567429196686E-22   7.16075864309771E-16   0.00000000000000E+00   0.00000000000000E+00
      0.00000000000000E+00   0.00000000000000E+00   1.73729483197749E-22  -1.62054001137992E-25   1.73567429196611E-22
     -7.16075864309772E-16
      0.00000000000000E+00
      0.00000000000000E+00   0.00000000000000E+00   0.00000000000000E+00   0.00000000000000E+00   2.82436701703553E-21
      3.55225496710680E-27   2.82437056929050E-21   7.16075864304398E-16   0.00000000000000E+00   0.00000000000000E+00
      0.00000000000000E+00   0.00000000000000E+00  -2.82436701703499E-21  -3.55225423141457E-27  -2.82437056928923E-21
     -7.16075864304397E-16
      0.00000000000000E+00
      0.00000000000000E+00   0.00000000000000E+00   0.00000000000000E+00   0.00000000000000E+00   2.84731352021198E-21
     -4.79232107740847E-27   2.84730872789091E-21   7.16075864304398E-16   0.00000000000000E+00   0.00000000000000E+00
      0.00000000000000E+00   0.00000000000000E+00  -2.84731352021602E-21   4.79232167093546E-27  -2.84730872789435E-21
     -7.16075864304397E-16
      2.00000000000000E-02
      0.00000000000000E+00   0.00000000000000E+00   0.00000000000000E+00   0.00000000000000E+00  -3.40001482598132E-18
      1.74804269333974E-24  -3.40001307793863E-18   6.93894969397033E-16   4.00000000000000E-02   4.00000000000000E-02
      0.00000000000000E+00   0.00000000000000E+00   2.91980842316402E-18   4.80204654774614E-19   3.40001307793863E-18
     -6.93894969397034E-16
      4.00000000000000E-02
      0.00000000000000E+00   0.00000000000000E+00   0.00000000000000E+00   0.00000000000000E+00  -1.97643997930003E-17
      2.95173150342329E-23  -1.97643702756853E-17   6.71227552397593E-16   8.00000000000000E-02   8.00000000000000E-02
      0.00000000000000E+00   0.00000000000000E+00   1.70430621684850E-17   2.72130810720034E-18   1.97643702756853E-17
     -6.71227552397593E-16
      6.00000000000000E-02
      0.00000000000000E+00   0.00000000000000E+00   0.00000000000000E+00   0.00000000000000E+00  -9.30679321740395E-17
      3.59072410191119E-26  -9.30679321381323E-17   6.47991602887431E-16   1.20000000000000E-01   1.20000000000000E-01
      0.00000000000000E+00   0.00000000000000E+00   7.98786662773222E-17   1.31892658608100E-17   9.30679321381323E-17
     -6.47991602887430E-16
      8.00000000000000E-02
      0.00000000000000E+00   0.00000000000000E+00   0.00000000000000E+00   0.00000000000000E+00  -4.39162700264712E-16
      7.25639113973814E-26  -4.39162700192148E-16   6.24092079074691E-16   1.60000000000000E-01   1.60000000000000E-01
      0.00000000000000E+00   0.00000000000000E+00   3.77077392826913E-16   6.20853073652350E-17   4.39162700192148E-16
     -6.24092079074690E-16
      1.00000000000000E-01
      0.00000000000000E+00   0.00000000000000E+00   0.00000000000000E+00   0.00000000000000E+00  -2.05959463802750E-15
     -5.10731993979918E-25  -2.05959463853823E-15   5.99428571276540E-16   2.00000000000000E-01   2.00000000000000E-01
      0.00000000000000E+00   0.00000000000000E+00   1.76915148584041E-15   2.90443152697814E-16   2.05959463853823E-15
     -5.99428571276540E-16
      1.20000000000000E-01
      0.00000000000000E+00   0.00000000000000E+00   0.00000000000000E+00   0.00000000000000E+00  -9.64540315259355E-15
      1.55916669466618E-24  -9.64540315103438E-15   5.73908042054737E-16   2.40000000000000E-01   2.40000000000000E-01
      0.00000000000000E+00   0.00000000000000E+00   8.28872558606278E-15   1.35667756497160E-15   9.64540315103438E-15
     -5.73908042054738E-16
      1.40000000000000E-01
      0.00000000000000E+00   0.00000000000000E+00   0.00000000000000E+00   0.00000000000000E+00  -4.51507352365890E-14
      2.41991147527262E-24  -4.51507352341691E-14   5.47456788074000E-16   2.80000000000000E-01   2.80000000000000E-01
      0.00000000000000E+00   0.00000000000000E+00   3.88170460928681E-14   6.33368914130108E-15   4.51507352341692E-14
     -5.47456788074000E-16
      1.60000000000000E-01
      0.00000000000000E+00   0.00000000000000E+00   0.00000000000000E+00   0.00000000000000E+00  -2.11302811506053E-13
      3.57715047323462E-24  -2.11302811502476E-13   5.20022989578502E-16   3.20000000000000E-01   3.20000000000000E-01
      0.00000000000000E+00   0.00000000000000E+00   1.81743822216656E-13   2.95589892858204E-14   2.11302811502476E-13
     -5.20022989578501E-16
      1.80000000000000E-01
      0.00000000000000E+00   0.00000000000000E+00   0.00000000000000E+00   0.00000000000000E+00  -9.88680754702492E-13
     -7.85896296731873E-25  -9.88680754703277E-13   4.91566198435058E-16   3.60000000000000E-01   3.60000000000000E-01
      0.00000000000000E+00   0.00000000000000E+00   8.50769807266557E-13   1.37910947436720E-13   9.88680754703277E-13
     -4.91566198435057E-16
      2.00000000000000E-01
      0.00000000000000E+00   0.00000000000000E+00   0.00000000000000E+00   0.00000000000000E+00  -4.62503264796438E-12
      3.07072270555108E-23  -4.62503264793367E-12   4.62037754730734E-16   4.00000000000000E-01   4.00000000000000E-01
      0.00000000000000E+00   0.00000000000000E+00   3.98175881484135E-12   6.43273833092326E-13   4.62503264793368E-12
     -4.62037754730735E-16
      2.20000000000000E-01
      0.00000000000000E+00   0.00000000000000E+00   0.00000000000000E+00   0.00000000000000E+00  -2.16307359103764E-11
      8.31503434243019E-24  -2.16307359103681E-11   4.31357545691121E-16   4.40000000000000E-01   4.40000000000000E-01
      0.00000000000000E+00   0.00000000000000E+00   1.86309736501277E-11   2.99976226024036E-12   2.16307359103681E-11
     -4.31357545691121E-16
      2.40000000000000E-01
      0.00000000000000E+00   0.00000000000000E+00   0.00000000000000E+00   0.00000000000000E+00  -1.01136341430103E-10
      6.32505992553963E-23  -1.01136341430040E-10   3.99388486257549E-16   4.80000000000000E-01   4.80000000000000E-01
      0.00000000000000E+00   0.00000000000000E+00   8.71511819475042E-11   1.39851594825357E-11   1.01136341430040E-10
     -3.99388486257549E-16
      2.60000000000000E-01
      0.00000000000000E+00   0.00000000000000E+00   0.00000000000000E+00   0.00000000000000E+00  -4.72705832953221E-10
     -1.15412807201530E-22  -4.72705832953337E-10   3.65908056669799E-16   5.20000000000000E-01   5.20000000000000E-01
      0.00000000000000E+00   0.00000000000000E+00   4.07525758498613E-10   6.51800744547234E-11   4.72705832953337E-10
     -3.65908056669799E-16
      2.80000000000000E-01
      0.00000000000000E+00   0.00000000000000E+00   0.00000000000000E+00   0.00000000000000E+00  -2.20832615303881E-09
      6.63117348660755E-22  -2.20832615303815E-09   3.30582170571723E-16   5.60000000000000E-01   5.60000000000000E-01
      0.00000000000000E+00   0.00000000000000E+00   1.90467756575328E-09   3.03648587284863E-10   2.20832615303814E-09
     -3.30582170571723E-16
      3.00000000000000E-01
      0.00000000000000E+00   0.00000000000000E+00   0.00000000000000E+00   0.00000000000000E+00  -1.03083697592858E-08
     -1.34485361313081E-21  -1.03083697592871E-08   2.92964668213718E-16   6.00000000000000E-01   6.00000000000000E-01
      0.00000000000000E+00   0.00000000000000E+00   8.89484100170505E-09   1.41352875758209E-09   1.03083697592871E-08
     -2.92964668213718E-16
      3.20000000000000E-01
      0.00000000000000E+00   0.00000000000000E+00   0.00000000000000E+00   0.00000000000000E+00  -4.80372905012941E-08
      6.33811014850873E-22  -4.80372905012935E-08   2.52576606637210E-16   6.40000000000000E-01   6.40000000000000E-01
      0.00000000000000E+00   0.00000000000000E+00   4.14670225678346E-08   6.57026793345887E-09   4.80372905012935E-08
     -2.52576606637210E-16
      3.40000000000000E-01
      0.00000000000000E+00   0.00000000000000E+00   0.00000000000000E+00   0.00000000000000E+00  -2.22748094970558E-07
      1.14027387725784E-20  -2.22748094970547E-07   2.09168229568292E-16   6.80000000000000E-01   6.80000000000000E-01
      0.00000000000000E+00   0.00000000000000E+00   1.92326886597208E-07   3.04212083733393E-08   2.22748094970547E-07
     -2.09168229568292E-16
      3.60000000000000E-01
      0.00000000000000E+00   0.00000000000000E+00   0.00000000000000E+00   0.00000000000000E+00  -1.01490040876705E-06
      9.63095717494475E-20  -1.01490040876695E-06   1.63388859253095E-16   7.20000000000000E-01   7.20000000000000E-01
      0.00000000000000E+00   0.00000000000000E+00   8.75782942363046E-07   1.39117466403905E-07   1.01490040876695E-06
     -1.63388859253095E-16
      3.80000000000000E-01
      0.00000000000000E+00   0.00000000000000E+00   0.00000000000000E+00   0.00000000000000E+00  -4.35207296759357E-06
      9.73591438884446E-18  -4.35207296758383E-06   1.18120391461959E-16   7.60000000000000E-01   7.60000000000000E-01
      0.00000000000000E+00   0.00000000000000E+00   3.74161815963083E-06   6.10454807953002E-07   4.35207296758383E-06
     -1.18120391461959E-16
      4.00000000000000E-01
      0.00000000000000E+00   0.00000000000000E+00   0.00000000000000E+00   0.00000000000000E+00  -1.59969779796034E-05
     -1.18571968865090E-14  -1.59969779914606E-05   7.90464832624003E-17   8.00000000000000E-01   8.00000000000000E-01
      0.00000000000000E+00   0.00000000000000E+00   1.35976334635817E-05   2.39934452787892E-06   1.59969779914606E-05
     -7.90464832624003E-17
      4.20000000000000E-01
      0.00000000000000E+00   0.00000000000000E+00   0.00000000000000E+00   0.00000000000000E+00  -4.64046932869782E-05
     -2.13446758046254E-19  -4.64046932869784E-05   5.08839846366409E-17   8.40000000000000E-01   8.40000000000000E-01
      0.00000000000000E+00   0.00000000000000E+00   3.86471074827523E-05   7.75758580422611E-06   4.64046932869784E-05
     -5.08839846366408E-17
      4.40000000000000E-01
      0.00000000000000E+00   0.00000000000000E+00   0.00000000000000E+00   0.00000000000000E+00  -1.06369933729295E-04
     -6.42317273063604E-20  -1.06369933729295E-04   3.31622565882158E-17   8.80000000000000E-01   8.80000000000000E-01
      0.00000000000000E+00   0.00000000000000E+00   8.64625862579025E-05   1.99073474713927E-05   1.06369933729295E-04
     -3.31622565882156E-17
      4.60000000000000E-01
      0.00000000000000E+00   0.00000000000000E+00   0.00000000000000E+00   0.00000000000000E+00  -2.02238071875481E-04
      5.92685331657942E-15  -2.02238071869554E-04   2.23529479928270E-17   9.20000000000000E-01   9.20000000000000E-01
      0.00000000000000E+00   0.00000000000000E+00   1.60695846437263E-04   4.15422254322910E-05   2.02238071869554E-04
     -2.23529479928270E-17
      4.80000000000000E-01
      0.00000000000000E+00   0.00000000000000E+00   0.00000000000000E+00   0.00000000000000E+00  -3.34929873674732E-04
      1.87520560047902E-15  -3.34929873672857E-04   1.54253765569762E-17   9.60000000000000E-01   9.60000000000000E-01
      0.00000000000000E+00   0.00000000000000E+00   2.61133221884853E-04   7.37966517880044E-05   3.34929873672857E-04
     -1.54253765569762E-17
      5.00000000000000E-01
      0.00000000000000E+00   0.00000000000000E+00   0.00000000000000E+00   0.00000000000000E+00  -5.01211307314742E-04
      2.05972761998980E-16  -5.01211307314536E-04   1.06286079464708E-17   1.00000000000000E+00   1.00000000000000E+00
      0.00000000000000E+00   0.00000000000000E+00   3.84926760127365E-04   1.16284547187170E-04   5.01211307314536E-04
     -1.06286079464707E-17
      5.20000000000000E-01
      0.00000000000000E+00   0.00000000000000E+00   0.00000000000000E+00   0.00000000000000E+00  -6.95378668960224E-04
     -1.22060743129698E-17  -6.95378668960236E-04   7.05501839968378E-18   1.04000000000000E+00   1.04000000000000E+00
      0.00000000000000E+00   0.00000000000000E+00   5.27769897383473E-04   1.67608771576763E-04   6.95378668960236E-04
     -7.05501839968374E-18
      5.40000000000000E-01
      0.00000000000000E+00   0.00000000000000E+00   0.00000000000000E+00   0.00000000000000E+00  -9.10770138437290E-04
     -5.87116145041900E-18  -9.10770138437296E-04   4.23179440080638E-18   1.08000000000000E+00   1.08000000000000E+00
      0.00000000000000E+00   0.00000000000000E+00   6.84867526498250E-04   2.25902611939046E-04   9.10770138437296E-04
     -4.23179440080632E-18
      5.60000000000000E-01
      0.00000000000000E+00   0.00000000000000E+00   0.00000000000000E+00   0.00000000000000E+00  -1.14095699329596E-03
     -2.39297055876094E-18  -1.14095699329597E-03   1.90047761927734E-18   1.12000000000000E+00   1.12000000000000E+00
      0.00000000000000E+00   0.00000000000000E+00   8.51694018478752E-04   2.89262974817214E-04   1.14095699329597E-03
     -1.90047761927736E-18
      5.80000000000000E-01
      0.00000000000000E+00   0.00000000000000E+00   0.00000000000000E+00   0.00000000000000E+00  -1.38054090564913E-03
     -4.16745843289481E-19  -1.38054090564913E-03  -8.96752560072631E-20   1.16000000000000E+00   1.16000000000000E+00
      0.00000000000000E+00   0.00000000000000E+00   1.02450099511973E-03   3.56039910529407E-04   1.38054090564913E-03
      8.96752560071993E-20
      6.00000000000000E-01
      0.00000000000000E+00   0.00000000000000E+00   0.00000000000000E+00   0.00000000000000E+00  -1.62551849228461E-03
     -3.69187267754853E-19  -1.62551849228461E-03  -1.83287003491983E-18   1.20000000000000E+00   1.20000000000000E+00
      0.00000000000000E+00   0.00000000000000E+00   1.20054184172612E-03   4.24976650558489E-04   1.62551849228461E-03
      1.83287003491980E-18
      6.20000000000000E-01
      0.00000000000000E+00   0.00000000000000E+00   0.00000000000000E+00   0.00000000000000E+00  -1.87325513134204E-03
     -7.56734357692842E-19  -1.87325513134204E-03  -3.39174670135016E-18   1.24000000000000E+00   1.24000000000000E+00
      0.00000000000000E+00   0.00000000000000E+00   1.37803560200725E-03   4.95219529334791E-04   1.87325513134204E-03
      3.39174670135016E-18
      6.40000000000000E-01
      0.00000000000000E+00   0.00000000000000E+00   0.00000000000000E+00   0.00000000000000E+00  -2.12220442860308E-03
     -1.61035548787018E-18  -2.12220442860308E-03  -4.80990828680852E-18   1.28000000000000E+00   1.28000000000000E+00
      0.00000000000000E+00   0.00000000000000E+00   1.55596100459373E-03   5.66243424009353E-04   2.12220442860308E-03
      4.80990828680850E-18
      6.60000000000000E-01
      0.00000000000000E+00   0.00000000000000E+00   0.00000000000000E+00   0.00000000000000E+00  -2.37154631294111E-03
      3.49102064691857E-18  -2.37154631294110E-03  -6.11856776243184E-18   1.32000000000000E+00   1.32000000000000E+00
      0.00000000000000E+00   0.00000000000000E+00   1.73379866462912E-03   6.37747648311983E-04   2.37154631294110E-03
      6.11856776243188E-18
      6.80000000000000E-01
      0.00000000000000E+00   0.00000000000000E+00   0.00000000000000E+00   0.00000000000000E+00  -2.62087385311721E-03
     -3.08337849270225E-13  -2.62087385342555E-03  -7.34042382659444E-18   1.36000000000000E+00   1.36000000000000E+00
      0.00000000000000E+00   0.00000000000000E+00   1.91131047660658E-03   7.09563376818968E-04   2.62087385342555E-03
      7.34042382659446E-18
      7.00000000000000E-01
      0.00000000000000E+00   0.00000000000000E+00   0.00000000000000E+00   0.00000000000000E+00  -2.86998129563989E-03
     -1.37474033285496E-13  -2.86998129577736E-03  -8.49216787356149E-18   1.40000000000000E+00   1.40000000000000E+00
      0.00000000000000E+00   0.00000000000000E+00   2.08839151845255E-03   7.81589777324819E-04   2.86998129577737E-03
      8.49216787356148E-18
      7.20000000000000E-01
      0.00000000000000E+00   0.00000000000000E+00   0.00000000000000E+00   0.00000000000000E+00  -3.11874656094443E-03
     -6.49442060868902E-14  -3.11874656100938E-03  -9.58622089304887E-18   1.44000000000000E+00   1.44000000000000E+00
      0.00000000000000E+00   0.00000000000000E+00   2.26498879277157E-03   8.53757768237813E-04   3.11874656100938E-03
      9.58622089304886E-18
      7.40000000000000E-01
      0.00000000000000E+00   0.00000000000000E+00   0.00000000000000E+00   0.00000000000000E+00  -3.36707781954795E-03
     -3.24039336872871E-14  -3.36707781958035E-03  -1.06319655599198E-17   1.48000000000000E+00   1.48000000000000E+00
      0.00000000000000E+00   0.00000000000000E+00   2.44106498933183E-03   9.26012830248524E-04   3.36707781958035E-03
      1.06319655599198E-17
      7.60000000000000E-01
      0.00000000000000E+00   0.00000000000000E+00   0.00000000000000E+00   0.00000000000000E+00  -3.61489481891130E-03
     -1.69903121698796E-14  -3.61489481892829E-03  -1.16366176177562E-17   1.52000000000000E+00   1.52000000000000E+00
      0.00000000000000E+00   0.00000000000000E+00   2.61658648376754E-03   9.98308335160744E-04   3.61489481892829E-03
      1.16366176177561E-17
      7.80000000000000E-01
      0.00000000000000E+00   0.00000000000000E+00   0.00000000000000E+00   0.00000000000000E+00  -3.86212531782095E-03
     -9.32451703273021E-15  -3.86212531783028E-03  -1.26058354237731E-17   1.56000000000000E+00   1.56000000000000E+00
      0.00000000000000E+00   0.00000000000000E+00   2.79152173175293E-03   1.07060358607735E-03   3.86212531783028E-03
      1.26058354237730E-17
      8.00000000000000E-01
      0.00000000000000E+00   0.00000000000000E+00   0.00000000000000E+00   0.00000000000000E+00  -4.10870620927263E-03
     -5.30520024458561E-15  -4.10870620927793E-03  -1.35441428554954E-17   1.60000000000000E+00   1.60000000000000E+00
      0.00000000000000E+00   0.00000000000000E+00   2.96584276094343E-03   1.14286344833450E-03   4.10870620927793E-03
      1.35441428554955E-17
      8.20000000000000E-01
      0.00000000000000E+00   0.00000000000000E+00   0.00000000000000E+00   0.00000000000000E+00  -4.35458491083565E-03
     -3.12313051166109E-15  -4.35458491083877E-03  -1.44552223649578E-17   1.64000000000000E+00   1.64000000000000E+00
      0.00000000000000E+00   0.00000000000000E+00   3.13952669260838E-03   1.21505821823039E-03   4.35458491083877E-03
      1.44552223649579E-17
      8.40000000000000E-01
      0.00000000000000E+00   0.00000000000000E+00   0.00000000000000E+00   0.00000000000000E+00  -4.59971972325047E-03
     -1.89585912851966E-15  -4.59971972325237E-03  -1.53421194046519E-17   1.68000000000000E+00   1.68000000000000E+00
      0.00000000000000E+00   0.00000000000000E+00   3.31255641644011E-03   1.28716330681226E-03   4.59971972325237E-03
      1.53421194046518E-17
      8.60000000000000E-01
      0.00000000000000E+00   0.00000000000000E+00   0.00000000000000E+00   0.00000000000000E+00  -4.84407916831142E-03
     -1.18256012846393E-15  -4.84407916831260E-03  -1.62073869958563E-17   1.72000000000000E+00   1.72000000000000E+00
      0.00000000000000E+00   0.00000000000000E+00   3.48492045575966E-03   1.35915871255294E-03   4.84407916831260E-03
      1.62073869958562E-17
      8.80000000000000E-01
      0.00000000000000E+00   0.00000000000000E+00   0.00000000000000E+00   0.00000000000000E+00  -5.08764070028665E-03
     -7.47339437599322E-16  -5.08764070028740E-03  -1.70531899226445E-17   1.76000000000000E+00   1.76000000000000E+00
      0.00000000000000E+00   0.00000000000000E+00   3.65661232256986E-03   1.43102837771754E-03   5.08764070028740E-03
      1.70531899226445E-17
      9.00000000000000E-01
      0.00000000000000E+00   0.00000000000000E+00   0.00000000000000E+00   0.00000000000000E+00  -5.33038917968198E-03
     -4.88944627409937E-16  -5.33038917968247E-03  -1.78813814906780E-17   1.80000000000000E+00   1.80000000000000E+00
      0.00000000000000E+00   0.00000000000000E+00   3.82762965237858E-03   1.50275952730388E-03   5.33038917968246E-03
      1.78813814906782E-17
      9.20000000000000E-01
      0.00000000000000E+00   0.00000000000000E+00   0.00000000000000E+00   0.00000000000000E+00  -5.57231537627762E-03
     -3.18453106590574E-16  -5.57231537627794E-03  -1.86935613639980E-17   1.84000000000000E+00   1.84000000000000E+00
      0.00000000000000E+00   0.00000000000000E+00   3.99797331878199E-03   1.57434205749595E-03   5.57231537627794E-03
      1.86935613639981E-17
      9.40000000000001E-01
      0.00000000000000E+00   0.00000000000000E+00   0.00000000000000E+00   0.00000000000000E+00  -5.81341464476349E-03
     -2.09166596849476E-16  -5.81341464476369E-03  -1.94911200820603E-17   1.88000000000000E+00   1.88000000000000E+00
      0.00000000000000E+00   0.00000000000000E+00   4.16764663778819E-03   1.64576800697550E-03   5.81341464476370E-03
      1.94911200820603E-17
      9.60000000000001E-01
      0.00000000000000E+00   0.00000000000000E+00   0.00000000000000E+00   0.00000000000000E+00  -6.05368582664138E-03
     -1.41340547246083E-16  -6.05368582664152E-03  -2.02752739767256E-17   1.92000000000000E+00   1.92000000000000E+00
      0.00000000000000E+00   0.00000000000000E+00   4.33665470654762E-03   1.71703112009390E-03   6.05368582664152E-03
      2.02752739767258E-17
      9.80000000000001E-01
      0.00000000000000E+00   0.00000000000000E+00   0.00000000000000E+00   0.00000000000000E+00  -6.29313037842174E-03
     -9.50171674592940E-17  -6.29313037842183E-03  -2.10470930000580E-17   1.96000000000000E+00   1.96000000000000E+00
      0.00000000000000E+00   0.00000000000000E+00   4.50500388176204E-03   1.78812649665979E-03   6.29313037842183E-03
      2.10470930000579E-17
      1.00000000000000E+00
      0.00000000000000E+00   0.00000000000000E+00   0.00000000000000E+00   0.00000000000000E+00  -6.53175169967799E-03
     -7.75448104159025E-17  -6.53175169967807E-03  -2.18075231958560E-17   2.00000000000000E+00   2.00000000000000E+00
      0.00000000000000E+00   0.00000000000000E+00   4.67270138319005E-03   1.85905031648802E-03   6.53175169967807E-03
      2.18075231958560E-17
}
