DF-ISE text

Info {
  version   = 1.0
  type      = xyplot
  datasets  = [
    "time"
    "n OuterVoltage" "n InnerVoltage" "n QuasiFermiPotential" "n DisplacementCurrent" "n eCurrent"
    "n hCurrent" "n TotalCurrent" "n Charge" "p OuterVoltage" "p InnerVoltage"
    "p QuasiFermiPotential" "p DisplacementCurrent" "p eCurrent" "p hCurrent" "p TotalCurrent"
    "p Charge" ]
  functions = [
    Time
    OuterVoltage InnerVoltage QuasiFermiPotential DisplacementCurrent eCurrent
    hCurrent TotalCurrent Charge OuterVoltage InnerVoltage
    QuasiFermiPotential DisplacementCurrent eCurrent hCurrent TotalCurrent
    Charge ]
}

Data {
      0.00000000000000E+00
      0.00000000000000E+00   0.00000000000000E+00   0.00000000000000E+00   0.00000000000000E+00  -6.53175169967776E-03
      1.19803369811880E-18  -6.53175169967776E-03  -2.18075231958552E-17   2.00000000000000E+00   2.00000000000000E+00
      0.00000000000000E+00   0.00000000000000E+00   4.67270138318983E-03   1.85905031648793E-03   6.53175169967776E-03
      2.18075231958553E-17
      2.00000000000000E-02
      0.00000000000000E+00   0.00000000000000E+00   0.00000000000000E+00   0.00000000000000E+00  -5.69296851939036E-03
     -7.79836765268826E-16  -5.69296851939114E-03  -1.90940886195461E-17   1.86000000000000E+00   1.86000000000000E+00
      0.00000000000000E+00   0.00000000000000E+00   4.08289348811298E-03   1.61007503127815E-03   5.69296851939113E-03
      1.90940886195462E-17
      4.00000000000000E-02
      0.00000000000000E+00   0.00000000000000E+00   0.00000000000000E+00   0.00000000000000E+00  -4.84407916836044E-03
     -1.95361700556210E-14  -4.84407916837997E-03  -1.62073869960829E-17   1.72000000000000E+00   1.72000000000000E+00
      0.00000000000000E+00   0.00000000000000E+00   3.48492045580690E-03   1.35915871257308E-03   4.84407916837997E-03
      1.62073869960830E-17
      6.00000000000000E-02
      0.00000000000000E+00   0.00000000000000E+00   0.00000000000000E+00   0.00000000000000E+00  -3.98550050748217E-03
      1.10999503271052E-18  -3.98550050748217E-03  -1.30786058087399E-17   1.58000000000000E+00   1.58000000000000E+00
      0.00000000000000E+00   0.00000000000000E+00   2.87876058544361E-03   1.10673992203856E-03   3.98550050748217E-03
      1.30786058087399E-17
      8.00000000000000E-02
      0.00000000000000E+00   0.00000000000000E+00   0.00000000000000E+00   0.00000000000000E+00  -3.11874656079532E-03
     -2.38500726239235E-18  -3.11874656079532E-03  -9.58622089203341E-18   1.44000000000000E+00   1.44000000000000E+00
      0.00000000000000E+00   0.00000000000000E+00   2.26498879262380E-03   8.53757768171518E-04   3.11874656079532E-03
      9.58622089203337E-18
      1.00000000000000E-01
      0.00000000000000E+00   0.00000000000000E+00   0.00000000000000E+00   0.00000000000000E+00  -2.24685840840370E-03
     -1.69117409790428E-16  -2.24685840840387E-03  -5.47634163953419E-18   1.30000000000000E+00   1.30000000000000E+00
      0.00000000000000E+00   0.00000000000000E+00   1.64491017086146E-03   6.01948237542405E-04   2.24685840840387E-03
      5.47634163953426E-18
      1.20000000000000E-01
      0.00000000000000E+00   0.00000000000000E+00   0.00000000000000E+00   0.00000000000000E+00  -1.38054090570757E-03
     -2.93229655118576E-14  -1.38054090573690E-03  -8.96752566669743E-20   1.16000000000000E+00   1.16000000000000E+00
      0.00000000000000E+00   0.00000000000000E+00   1.02450099517816E-03   3.56039910558731E-04   1.38054090573690E-03
      8.96752566669306E-20
      1.40000000000000E-01
      0.00000000000000E+00   0.00000000000000E+00   0.00000000000000E+00   0.00000000000000E+00  -5.95218877603150E-04
      1.03401191319357E-18  -5.95218877603149E-04   8.72532425663791E-18   1.02000000000000E+00   1.02000000000000E+00
      0.00000000000000E+00   0.00000000000000E+00   4.54265359512195E-04   1.40953518090954E-04   5.95218877603148E-04
     -8.72532425663787E-18
      1.60000000000000E-01
      0.00000000000000E+00   0.00000000000000E+00   0.00000000000000E+00   0.00000000000000E+00  -1.06369933727784E-04
      1.00381611642626E-15  -1.06369933726780E-04   3.31622565882937E-17   8.80000000000000E-01   8.80000000000000E-01
      0.00000000000000E+00   0.00000000000000E+00   8.64625862563869E-05   1.99073474703935E-05   1.06369933726780E-04
     -3.31622565882937E-17
      1.80000000000000E-01
      0.00000000000000E+00   0.00000000000000E+00   0.00000000000000E+00   0.00000000000000E+00  -2.12779464717079E-06
     -5.47960506196211E-20  -2.12779464717085E-06   1.40383777026036E-16   7.40000000000000E-01   7.40000000000000E-01
      0.00000000000000E+00   0.00000000000000E+00   1.83391067702851E-06   2.93883970142336E-07   2.12779464717084E-06
     -1.40383777026036E-16
      2.00000000000000E-01
      0.00000000000000E+00   0.00000000000000E+00   0.00000000000000E+00   0.00000000000000E+00  -1.03083697590665E-08
     -1.30047874140728E-21  -1.03083697590678E-08   2.92964668213718E-16   6.00000000000000E-01   6.00000000000000E-01
      0.00000000000000E+00   0.00000000000000E+00   8.89484100148572E-09   1.41352875758205E-09   1.03083697590678E-08
     -2.92964668213719E-16
      2.20000000000000E-01
      0.00000000000000E+00   0.00000000000000E+00   0.00000000000000E+00   0.00000000000000E+00  -4.67741500498634E-11
      7.97758231503493E-23  -4.67741500497836E-11   4.15545679594614E-16   4.60000000000000E-01   4.60000000000000E-01
      0.00000000000000E+00   0.00000000000000E+00   4.02968833903380E-11   6.47726665944559E-12   4.67741500497836E-11
     -4.15545679594614E-16
      2.40000000000000E-01
      0.00000000000000E+00   0.00000000000000E+00   0.00000000000000E+00   0.00000000000000E+00  -2.11302824517708E-13
     -3.24196236303340E-25  -2.11302824518032E-13   5.20022989578501E-16   3.20000000000000E-01   3.20000000000000E-01
      0.00000000000000E+00   0.00000000000000E+00   1.81743835228310E-13   2.95589892897220E-14   2.11302824518032E-13
     -5.20022989578501E-16
      2.60000000000000E-01
      0.00000000000000E+00   0.00000000000000E+00   0.00000000000000E+00   0.00000000000000E+00  -9.51343372312819E-16
     -1.20171524507559E-25  -9.51343372432990E-16   6.11861976720281E-16   1.80000000000000E-01   1.80000000000000E-01
      0.00000000000000E+00   0.00000000000000E+00   8.17015439277333E-16   1.34327933155657E-16   9.51343372432990E-16
     -6.11861976720282E-16
      2.80000000000000E-01
      0.00000000000000E+00   0.00000000000000E+00   0.00000000000000E+00   0.00000000000000E+00  -3.37438541097646E-18
      6.52976895796831E-27  -3.37438540444669E-18   6.93894969397035E-16   4.00000000000003E-02   4.00000000000003E-02
      0.00000000000000E+00   0.00000000000000E+00   2.89417900815872E-18   4.80206396287965E-19   3.37438540444669E-18
     -6.93894969397038E-16
      3.00000000000000E-01
      0.00000000000000E+00   0.00000000000000E+00   0.00000000000000E+00   0.00000000000000E+00   9.01240336870415E-19
      4.12113889128624E-24   9.01244458009306E-19   7.69804261400778E-16  -1.00000000000000E-01  -1.00000000000000E-01
      0.00000000000000E+00   0.00000000000000E+00  -7.71662742952136E-19  -1.29581715057172E-19  -9.01244458009308E-19
     -7.69804261400779E-16
      3.20000000000000E-01
      0.00000000000000E+00   0.00000000000000E+00   0.00000000000000E+00   0.00000000000000E+00   9.29702252413344E-19
     -2.66734388544043E-25   9.29701985678955E-19   8.41838203199837E-16  -2.40000000000000E-01  -2.40000000000000E-01
      0.00000000000000E+00   0.00000000000000E+00  -7.94823520894423E-19  -1.34878464784532E-19  -9.29701985678955E-19
     -8.41838203199837E-16
      3.40000000000000E-01
      0.00000000000000E+00   0.00000000000000E+00   0.00000000000000E+00   0.00000000000000E+00   9.38144598397575E-19
      3.02626214870919E-25   9.38144901023790E-19   9.10962249757673E-16  -3.80000000000000E-01  -3.80000000000000E-01
      0.00000000000000E+00   0.00000000000000E+00  -8.00644081962926E-19  -1.37500819060861E-19  -9.38144901023787E-19
     -9.10962249757675E-16
      3.60000000000000E-01
      0.00000000000000E+00   0.00000000000000E+00   0.00000000000000E+00   0.00000000000000E+00   9.45782651089133E-19
      8.00120148516024E-27   9.45782659090334E-19   9.77571230512674E-16  -5.20000000000000E-01  -5.20000000000000E-01
      0.00000000000000E+00   0.00000000000000E+00  -8.05615026142802E-19  -1.40167632947535E-19  -9.45782659090337E-19
     -9.77571230512673E-16
      3.80000000000000E-01
      0.00000000000000E+00   0.00000000000000E+00   0.00000000000000E+00   0.00000000000000E+00   9.52929831720049E-19
      6.83774069513034E-26   9.52929900097456E-19   1.04180727651456E-15  -6.60000000000001E-01  -6.60000000000001E-01
      0.00000000000000E+00   0.00000000000000E+00  -8.10053785314856E-19  -1.42876114782596E-19  -9.52929900097452E-19
     -1.04180727651456E-15
      4.00000000000000E-01
      0.00000000000000E+00   0.00000000000000E+00   0.00000000000000E+00   0.00000000000000E+00   9.60620164258094E-19
      5.71274654974018E-26   9.60620221385559E-19   1.10371996283652E-15  -8.00000000000001E-01  -8.00000000000001E-01
      0.00000000000000E+00   0.00000000000000E+00  -8.15015208777007E-19  -1.45605012608548E-19  -9.60620221385555E-19
     -1.10371996283652E-15
      4.20000000000000E-01
      0.00000000000000E+00   0.00000000000000E+00   0.00000000000000E+00   0.00000000000000E+00   9.68645596987486E-19
     -9.16817860592650E-27   9.68645587819307E-19   1.16342774859870E-15  -9.40000000000001E-01  -9.40000000000001E-01
      0.00000000000000E+00   0.00000000000000E+00  -8.20299437783071E-19  -1.48346150036231E-19  -9.68645587819303E-19
     -1.16342774859870E-15
      4.40000000000000E-01
      0.00000000000000E+00   0.00000000000000E+00   0.00000000000000E+00   0.00000000000000E+00   9.75868472043302E-19
     -1.48509600340751E-26   9.75868457192342E-19   1.22120357233310E-15  -1.08000000000000E+00  -1.08000000000000E+00
      0.00000000000000E+00   0.00000000000000E+00  -8.24753508750156E-19  -1.51114948442187E-19  -9.75868457192343E-19
     -1.22120357233310E-15
      4.60000000000000E-01
      0.00000000000000E+00   0.00000000000000E+00   0.00000000000000E+00   0.00000000000000E+00   9.82890847791231E-19
      1.17290307594015E-26   9.82890859520262E-19   1.27737764663497E-15  -1.22000000000000E+00  -1.22000000000000E+00
      0.00000000000000E+00   0.00000000000000E+00  -8.28952420812853E-19  -1.53938438707416E-19  -9.82890859520269E-19
     -1.27737764663497E-15
      4.80000000000000E-01
      0.00000000000000E+00   0.00000000000000E+00   0.00000000000000E+00   0.00000000000000E+00   9.89838710062606E-19
      1.56164905486117E-28   9.89838710218771E-19   1.33221822541649E-15  -1.36000000000000E+00  -1.36000000000000E+00
      0.00000000000000E+00   0.00000000000000E+00  -8.32998463705086E-19  -1.56840246513685E-19  -9.89838710218770E-19
     -1.33221822541649E-15
      5.00000000000000E-01
      0.00000000000000E+00   0.00000000000000E+00   0.00000000000000E+00   0.00000000000000E+00   9.96758400113630E-19
     -1.15612796807171E-27   9.96758398957502E-19   1.38590874372897E-15  -1.50000000000000E+00  -1.50000000000000E+00
      0.00000000000000E+00   0.00000000000000E+00  -8.36921494410616E-19  -1.59836904546888E-19  -9.96758398957504E-19
     -1.38590874372897E-15
      5.20000000000000E-01
      0.00000000000000E+00   0.00000000000000E+00   0.00000000000000E+00   0.00000000000000E+00   1.00368286680459E-18
     -6.29170942640021E-27   1.00368286051288E-18   1.43857039905677E-15  -1.64000000000000E+00  -1.64000000000000E+00
      0.00000000000000E+00   0.00000000000000E+00  -8.40743693840514E-19  -1.62939166672366E-19  -1.00368286051288E-18
     -1.43857039905677E-15
      5.40000000000000E-01
      0.00000000000000E+00   0.00000000000000E+00   0.00000000000000E+00   0.00000000000000E+00   1.01062246683079E-18
      1.29687872710882E-27   1.01062246812767E-18   1.49028465474201E-15  -1.78000000000000E+00  -1.78000000000000E+00
      0.00000000000000E+00   0.00000000000000E+00  -8.44468814491926E-19  -1.66153653635736E-19  -1.01062246812766E-18
     -1.49028465474201E-15
      5.60000000000000E-01
      0.00000000000000E+00   0.00000000000000E+00   0.00000000000000E+00   0.00000000000000E+00   1.01757589448196E-18
      4.31049434231514E-27   1.01757589879245E-18   1.54110806300903E-15  -1.92000000000000E+00  -1.92000000000000E+00
      0.00000000000000E+00   0.00000000000000E+00  -8.48092344768241E-19  -1.69483554024215E-19  -1.01757589879246E-18
     -1.54110806300903E-15
      5.80000000000000E-01
      0.00000000000000E+00   0.00000000000000E+00   0.00000000000000E+00   0.00000000000000E+00   1.02453762204272E-18
      1.73312333306602E-29   1.02453762206005E-18   1.59108070489837E-15  -2.06000000000000E+00  -2.06000000000000E+00
      0.00000000000000E+00   0.00000000000000E+00  -8.51608511985752E-19  -1.72929110074300E-19  -1.02453762206005E-18
     -1.59108070489837E-15
      6.00000000000000E-01
      0.00000000000000E+00   0.00000000000000E+00   0.00000000000000E+00   0.00000000000000E+00   1.03150569276891E-18
     -2.27436978136517E-28   1.03150569254147E-18   1.64022961707309E-15  -2.20000000000000E+00  -2.20000000000000E+00
      0.00000000000000E+00   0.00000000000000E+00  -8.55017421480642E-19  -1.76488271060831E-19  -1.03150569254147E-18
     -1.64022961707309E-15
      6.20000000000000E-01
      0.00000000000000E+00   0.00000000000000E+00   0.00000000000000E+00   0.00000000000000E+00   1.03848376416015E-18
      4.47352369455570E-27   1.03848376863367E-18   1.68857369700396E-15  -2.34000000000000E+00  -2.34000000000000E+00
      0.00000000000000E+00   0.00000000000000E+00  -8.58325658974449E-19  -1.80158109659222E-19  -1.03848376863367E-18
     -1.68857369700396E-15
      6.40000000000000E-01
      0.00000000000000E+00   0.00000000000000E+00   0.00000000000000E+00   0.00000000000000E+00   1.04548013468446E-18
     -1.96256238047003E-27   1.04548013272190E-18   1.73613524034115E-15  -2.48000000000000E+00  -2.48000000000000E+00
      0.00000000000000E+00   0.00000000000000E+00  -8.61543029998050E-19  -1.83937102723846E-19  -1.04548013272190E-18
     -1.73613524034114E-15
      6.60000000000000E-01
      0.00000000000000E+00   0.00000000000000E+00   0.00000000000000E+00   0.00000000000000E+00   1.05250423819902E-18
     -4.63477378025484E-28   1.05250423773554E-18   1.78295192965587E-15  -2.62000000000000E+00  -2.62000000000000E+00
      0.00000000000000E+00   0.00000000000000E+00  -8.64677012726921E-19  -1.87827225008622E-19  -1.05250423773554E-18
     -1.78295192965587E-15
      6.80000000000000E-01
      0.00000000000000E+00   0.00000000000000E+00   0.00000000000000E+00   0.00000000000000E+00   1.05956773944334E-18
      2.20781476866383E-29   1.05956773946542E-18   1.82907867795899E-15  -2.76000000000000E+00  -2.76000000000000E+00
      0.00000000000000E+00   0.00000000000000E+00  -8.67733465671865E-19  -1.91834273793551E-19  -1.05956773946542E-18
     -1.82907867795900E-15
      7.00000000000000E-01
      0.00000000000000E+00   0.00000000000000E+00   0.00000000000000E+00   0.00000000000000E+00   1.06668606614601E-18
     -4.52748568477459E-27   1.06668606161852E-18   1.87457831159283E-15  -2.90000000000000E+00  -2.90000000000000E+00
      0.00000000000000E+00   0.00000000000000E+00  -8.70719483846739E-19  -1.95966577771778E-19  -1.06668606161852E-18
     -1.87457831159283E-15
      7.20000000000000E-01
      0.00000000000000E+00   0.00000000000000E+00   0.00000000000000E+00   0.00000000000000E+00   1.07387843801541E-18
      3.07729932615591E-27   1.07387844109271E-18   1.91950988816419E-15  -3.04000000000000E+00  -3.04000000000000E+00
      0.00000000000000E+00   0.00000000000000E+00  -8.73645171742003E-19  -2.00233269350706E-19  -1.07387844109271E-18
     -1.91950988816419E-15
      7.40000000000000E-01
      0.00000000000000E+00   0.00000000000000E+00   0.00000000000000E+00   0.00000000000000E+00   1.08116647985828E-18
     -7.49512328145156E-29   1.08116647978333E-18   1.96392206415612E-15  -3.18000000000000E+00  -3.18000000000000E+00
      0.00000000000000E+00   0.00000000000000E+00  -8.76523375698175E-19  -2.04643104085155E-19  -1.08116647978333E-18
     -1.96392206415613E-15
      7.60000000000000E-01
      0.00000000000000E+00   0.00000000000000E+00   0.00000000000000E+00   0.00000000000000E+00   1.08857093307205E-18
     -8.51603589392213E-28   1.08857093222045E-18   2.00785201174983E-15  -3.32000000000000E+00  -3.32000000000000E+00
      0.00000000000000E+00   0.00000000000000E+00  -8.79366838185800E-19  -2.09204094034647E-19  -1.08857093222045E-18
     -2.00785201174983E-15
      7.80000000000000E-01
      0.00000000000000E+00   0.00000000000000E+00   0.00000000000000E+00   0.00000000000000E+00   1.09610886121741E-18
     -2.56920705216239E-28   1.09610886096049E-18   2.05132701596280E-15  -3.46000000000000E+00  -3.46000000000000E+00
      0.00000000000000E+00   0.00000000000000E+00  -8.82185547043253E-19  -2.13923313917238E-19  -1.09610886096049E-18
     -2.05132701596280E-15
      8.00000000000000E-01
      0.00000000000000E+00   0.00000000000000E+00   0.00000000000000E+00   0.00000000000000E+00   1.10379167097734E-18
      3.42482012243232E-28   1.10379167131982E-18   2.09436662286105E-15  -3.60000000000000E+00  -3.60000000000000E+00
      0.00000000000000E+00   0.00000000000000E+00  -8.84984856160687E-19  -2.18806815159131E-19  -1.10379167131982E-18
     -2.09436662286105E-15
      8.20000000000000E-01
      0.00000000000000E+00   0.00000000000000E+00   0.00000000000000E+00   0.00000000000000E+00   1.11162422441464E-18
     -1.42088004557025E-27   1.11162422299376E-18   2.13698476234596E-15  -3.74000000000000E+00  -3.74000000000000E+00
      0.00000000000000E+00   0.00000000000000E+00  -8.87764717104096E-19  -2.23859505889665E-19  -1.11162422299376E-18
     -2.13698476234596E-15
      8.40000000000000E-01
      0.00000000000000E+00   0.00000000000000E+00   0.00000000000000E+00   0.00000000000000E+00   1.11960517835181E-18
     -9.24702889430596E-28   1.11960517742711E-18   2.17919190927017E-15  -3.88000000000000E+00  -3.88000000000000E+00
      0.00000000000000E+00   0.00000000000000E+00  -8.90520119782939E-19  -2.29085057644174E-19  -1.11960517742711E-18
     -2.17919190927016E-15
      8.60000000000000E-01
      0.00000000000000E+00   0.00000000000000E+00   0.00000000000000E+00   0.00000000000000E+00   1.12772880866825E-18
     -1.25072048742135E-28   1.12772880854318E-18   2.22099705768097E-15  -4.02000000000000E+00  -4.02000000000000E+00
      0.00000000000000E+00   0.00000000000000E+00  -8.93242947361107E-19  -2.34485861182071E-19  -1.12772880854318E-18
     -2.22099705768097E-15
      8.80000000000000E-01
      0.00000000000000E+00   0.00000000000000E+00   0.00000000000000E+00   0.00000000000000E+00   1.13598793254293E-18
     -5.30075488611215E-28   1.13598793201285E-18   2.26240893945926E-15  -4.16000000000000E+00  -4.16000000000000E+00
      0.00000000000000E+00   0.00000000000000E+00  -8.95924844303502E-19  -2.40063087709352E-19  -1.13598793201285E-18
     -2.26240893945927E-15
      9.00000000000000E-01
      0.00000000000000E+00   0.00000000000000E+00   0.00000000000000E+00   0.00000000000000E+00   1.14437642917328E-18
      1.22016503750739E-28   1.14437642929529E-18   2.30343636173070E-15  -4.30000000000000E+00  -4.30000000000000E+00
      0.00000000000000E+00   0.00000000000000E+00  -8.98559596830950E-19  -2.45816832464349E-19  -1.14437642929530E-18
     -2.30343636173070E-15
      9.20000000000000E-01
      0.00000000000000E+00   0.00000000000000E+00   0.00000000000000E+00   0.00000000000000E+00   1.15289063386992E-18
     -1.40164448316788E-28   1.15289063372975E-18   2.34408835173949E-15  -4.44000000000000E+00  -4.44000000000000E+00
      0.00000000000000E+00   0.00000000000000E+00  -9.01144268586138E-19  -2.51746365143617E-19  -1.15289063372975E-18
     -2.34408835173949E-15
      9.40000000000001E-01
      0.00000000000000E+00   0.00000000000000E+00   0.00000000000000E+00   0.00000000000000E+00   1.16152891713424E-18
      2.53317216452856E-29   1.16152891715957E-18   2.38437482784530E-15  -4.58000000000000E+00  -4.58000000000000E+00
      0.00000000000000E+00   0.00000000000000E+00  -9.03678380737665E-19  -2.57850536421900E-19  -1.16152891715956E-18
     -2.38437482784530E-15
      9.60000000000001E-01
      0.00000000000000E+00   0.00000000000000E+00   0.00000000000000E+00   0.00000000000000E+00   1.17029149859671E-18
      1.85542467846056E-28   1.17029149878225E-18   2.42430765716725E-15  -4.72000000000000E+00  -4.72000000000000E+00
      0.00000000000000E+00   0.00000000000000E+00  -9.06163257433646E-19  -2.64128241348606E-19  -1.17029149878225E-18
     -2.42430765716725E-15
      9.80000000000001E-01
      0.00000000000000E+00   0.00000000000000E+00   0.00000000000000E+00   0.00000000000000E+00   1.17918021032135E-18
     -1.88534646585670E-28   1.17918021013281E-18   2.46390125833619E-15  -4.86000000000000E+00  -4.86000000000000E+00
      0.00000000000000E+00   0.00000000000000E+00  -9.08601418404230E-19  -2.70578791728582E-19  -1.17918021013281E-18
     -2.46390125833619E-15
      1.00000000000000E+00
      0.00000000000000E+00   0.00000000000000E+00   0.00000000000000E+00   0.00000000000000E+00   1.18819894637034E-18
     -1.12123596220860E-28   1.18819894625821E-18   2.50317208759217E-15  -5.00000000000000E+00  -5.00000000000000E+00
      0.00000000000000E+00   0.00000000000000E+00  -9.10996915637095E-19  -2.77202030621116E-19  -1.18819894625821E-18
     -2.50317208759217E-15
      1.00000000000000E-03
      0.00000000000000E+00   0.00000000000000E+00   0.00000000000000E+00   0.00000000000000E+00   1.18852353058067E-18
     -5.57967540980271E-34   1.18852353058067E-18   2.50456886251326E-15  -5.00500000000000E+00  -5.00500000000000E+00
      0.00000000000000E+00   0.00000000000000E+00  -9.11081759802999E-19  -2.77441770777672E-19  -1.18852353058067E-18
     -2.50456886251326E-15
      2.00000000000000E-03
      0.00000000000000E+00   0.00000000000000E+00   0.00000000000000E+00   0.00000000000000E+00   1.18884827790410E-18
     -1.51091323139249E-32   1.18884827790408E-18   2.50596524830252E-15  -5.01000000000000E+00  -5.01000000000000E+00
      0.00000000000000E+00   0.00000000000000E+00  -9.11166546559723E-19  -2.77681731344343E-19  -1.18884827790407E-18
     -2.50596524830253E-15
      3.00000000000000E-03
      0.00000000000000E+00   0.00000000000000E+00   0.00000000000000E+00   0.00000000000000E+00   1.18917319915417E-18
     -1.38548841513833E-32   1.18917319915415E-18   2.50736124571682E-15  -5.01500000000000E+00  -5.01500000000000E+00
      0.00000000000000E+00   0.00000000000000E+00  -9.11251286708102E-19  -2.77921912446050E-19  -1.18917319915415E-18
     -2.50736124571682E-15
      4.00000000000000E-03
      0.00000000000000E+00   0.00000000000000E+00   0.00000000000000E+00   0.00000000000000E+00   1.18949829482407E-18
     -1.49991105452809E-32   1.18949829482405E-18   2.50875685551677E-15  -5.02000000000000E+00  -5.02000000000000E+00
      0.00000000000000E+00   0.00000000000000E+00  -9.11335980728467E-19  -2.78162314095571E-19  -1.18949829482404E-18
     -2.50875685551676E-15
      5.00000000000000E-03
      0.00000000000000E+00   0.00000000000000E+00   0.00000000000000E+00   0.00000000000000E+00   1.18982356524832E-18
     -1.48230757154505E-32   1.18982356524831E-18   2.51015207845849E-15  -5.02500000000000E+00  -5.02500000000000E+00
      0.00000000000000E+00   0.00000000000000E+00  -9.11420628942749E-19  -2.78402936305545E-19  -1.18982356524829E-18
     -2.51015207845849E-15
      6.00000000000000E-03
      0.00000000000000E+00   0.00000000000000E+00   0.00000000000000E+00   0.00000000000000E+00   1.19014901076389E-18
     -1.46517561042763E-32   1.19014901076388E-18   2.51154691529557E-15  -5.03000000000000E+00  -5.03000000000000E+00
      0.00000000000000E+00   0.00000000000000E+00  -9.11505231675415E-19  -2.78643779088479E-19  -1.19014901076389E-18
     -2.51154691529557E-15
      7.00000000000000E-03
      0.00000000000000E+00   0.00000000000000E+00   0.00000000000000E+00   0.00000000000000E+00   1.19047463171061E-18
     -1.40010559297246E-32   1.19047463171060E-18   2.51294136677895E-15  -5.03500000000000E+00  -5.03500000000000E+00
      0.00000000000000E+00   0.00000000000000E+00  -9.11589789253878E-19  -2.78884842456725E-19  -1.19047463171060E-18
     -2.51294136677895E-15
      8.00000000000000E-03
      0.00000000000000E+00   0.00000000000000E+00   0.00000000000000E+00   0.00000000000000E+00   1.19080042843017E-18
     -1.28363969216503E-32   1.19080042843016E-18   2.51433543365684E-15  -5.04000000000000E+00  -5.04000000000000E+00
      0.00000000000000E+00   0.00000000000000E+00  -9.11674302007697E-19  -2.79126126422457E-19  -1.19080042843015E-18
     -2.51433543365684E-15
      9.00000000000000E-03
      0.00000000000000E+00   0.00000000000000E+00   0.00000000000000E+00   0.00000000000000E+00   1.19112640126686E-18
     -1.42525342580538E-32   1.19112640126685E-18   2.51572911667463E-15  -5.04500000000000E+00  -5.04500000000000E+00
      0.00000000000000E+00   0.00000000000000E+00  -9.11758770269202E-19  -2.79367630997642E-19  -1.19112640126684E-18
     -2.51572911667463E-15
      1.00000000000000E-02
      0.00000000000000E+00   0.00000000000000E+00   0.00000000000000E+00   0.00000000000000E+00   1.19145255056822E-18
     -1.46407539274119E-32   1.19145255056820E-18   2.51712241657481E-15  -5.05000000000000E+00  -5.05000000000000E+00
      0.00000000000000E+00   0.00000000000000E+00  -9.11843194374177E-19  -2.79609356194023E-19  -1.19145255056820E-18
     -2.51712241657482E-15
      1.10000000000000E-02
      0.00000000000000E+00   0.00000000000000E+00   0.00000000000000E+00   0.00000000000000E+00   1.19177887668305E-18
     -1.30470100216260E-32   1.19177887668303E-18   2.51851533409690E-15  -5.05500000000000E+00  -5.05500000000000E+00
      0.00000000000000E+00   0.00000000000000E+00  -9.11927574659946E-19  -2.79851302023088E-19  -1.19177887668303E-18
     -2.51851533409690E-15
      1.20000000000000E-02
      0.00000000000000E+00   0.00000000000000E+00   0.00000000000000E+00   0.00000000000000E+00   1.19210537996294E-18
     -1.34949557939623E-32   1.19210537996293E-18   2.51990786997731E-15  -5.06000000000000E+00  -5.06000000000000E+00
      0.00000000000000E+00   0.00000000000000E+00  -9.12011911466886E-19  -2.80093468496047E-19  -1.19210537996293E-18
     -2.51990786997731E-15
      1.30000000000000E-02
      0.00000000000000E+00   0.00000000000000E+00   0.00000000000000E+00   0.00000000000000E+00   1.19243206076141E-18
     -1.32497644238414E-32   1.19243206076139E-18   2.52130002494934E-15  -5.06500000000000E+00  -5.06500000000000E+00
      0.00000000000000E+00   0.00000000000000E+00  -9.12096205137586E-19  -2.80335855623811E-19  -1.19243206076140E-18
     -2.52130002494934E-15
      1.40000000000000E-02
      0.00000000000000E+00   0.00000000000000E+00   0.00000000000000E+00   0.00000000000000E+00   1.19275891943432E-18
     -1.40985037819522E-32   1.19275891943431E-18   2.52269179974304E-15  -5.07000000000000E+00  -5.07000000000000E+00
      0.00000000000000E+00   0.00000000000000E+00  -9.12180456017329E-19  -2.80578463416968E-19  -1.19275891943430E-18
     -2.52269179974304E-15
      1.50000000000000E-02
      0.00000000000000E+00   0.00000000000000E+00   0.00000000000000E+00   0.00000000000000E+00   1.19308595633993E-18
     -1.43955625572910E-32   1.19308595633991E-18   2.52408319508515E-15  -5.07500000000000E+00  -5.07500000000000E+00
      0.00000000000000E+00   0.00000000000000E+00  -9.12264664454154E-19  -2.80821291885755E-19  -1.19308595633991E-18
     -2.52408319508515E-15
      1.60000000000000E-02
      0.00000000000000E+00   0.00000000000000E+00   0.00000000000000E+00   0.00000000000000E+00   1.19341317183761E-18
     -1.38155906625819E-32   1.19341317183759E-18   2.52547421169904E-15  -5.08000000000000E+00  -5.08000000000000E+00
      0.00000000000000E+00   0.00000000000000E+00  -9.12348830797555E-19  -2.81064341040040E-19  -1.19341317183760E-18
     -2.52547421169903E-15
      1.70000000000000E-02
      0.00000000000000E+00   0.00000000000000E+00   0.00000000000000E+00   0.00000000000000E+00   1.19374056628937E-18
     -1.21982706635152E-32   1.19374056628936E-18   2.52686485030458E-15  -5.08500000000000E+00  -5.08500000000000E+00
      0.00000000000000E+00   0.00000000000000E+00  -9.12432955400055E-19  -2.81307610889295E-19  -1.19374056628935E-18
     -2.52686485030458E-15
      1.80000000000000E-02
      0.00000000000000E+00   0.00000000000000E+00   0.00000000000000E+00   0.00000000000000E+00   1.19406814005890E-18
     -1.43578408080416E-32   1.19406814005888E-18   2.52825511161817E-15  -5.09000000000000E+00  -5.09000000000000E+00
      0.00000000000000E+00   0.00000000000000E+00  -9.12517038616311E-19  -2.81551101442576E-19  -1.19406814005889E-18
     -2.52825511161818E-15
      1.90000000000000E-02
      0.00000000000000E+00   0.00000000000000E+00   0.00000000000000E+00   0.00000000000000E+00   1.19439589351146E-18
     -1.36568449678241E-32   1.19439589351145E-18   2.52964499635259E-15  -5.09500000000000E+00  -5.09500000000000E+00
      0.00000000000000E+00   0.00000000000000E+00  -9.12601080802944E-19  -2.81794812708497E-19  -1.19439589351144E-18
     -2.52964499635259E-15
      2.00000000000000E-02
      0.00000000000000E+00   0.00000000000000E+00   0.00000000000000E+00   0.00000000000000E+00   1.19472382701448E-18
     -1.24984729179581E-32   1.19472382701447E-18   2.53103450521694E-15  -5.10000000000000E+00  -5.10000000000000E+00
      0.00000000000000E+00   0.00000000000000E+00  -9.12685082319265E-19  -2.82038744695210E-19  -1.19472382701447E-18
     -2.53103450521694E-15
      2.10000000000000E-02
      0.00000000000000E+00   0.00000000000000E+00   0.00000000000000E+00   0.00000000000000E+00   1.19505194093628E-18