DF-ISE text

Info {
  version   = 1.0
  type      = xyplot
  datasets  = [
    "time"
    "n1contact OuterVoltage" "n1contact InnerVoltage" "n1contact QuasiFermiPotential" "n1contact DisplacementCurrent" "n1contact eCurrent"
    "n1contact hCurrent" "n1contact TotalCurrent" "n1contact Charge" "n2contact OuterVoltage" "n2contact InnerVoltage"
    "n2contact QuasiFermiPotential" "n2contact DisplacementCurrent" "n2contact eCurrent" "n2contact hCurrent" "n2contact TotalCurrent"
    "n2contact Charge" ]
  functions = [
    Time
    OuterVoltage InnerVoltage QuasiFermiPotential DisplacementCurrent eCurrent
    hCurrent TotalCurrent Charge OuterVoltage InnerVoltage
    QuasiFermiPotential DisplacementCurrent eCurrent hCurrent TotalCurrent
    Charge ]
}

Data {
      0.00000000000000E+00
      3.00000000000000E+00   3.00000000000000E+00   0.00000000000000E+00   0.00000000000000E+00   1.57831825659148E+00
      5.24203022941406E-01   2.10252127953289E+00   2.64706820904510E-18   0.00000000000000E+00   0.00000000000000E+00
      0.00000000000000E+00   0.00000000000000E+00  -1.57831825659148E+00  -5.24203022941406E-01  -2.10252127953289E+00
     -2.64706820904514E-18
      2.00000000000000E-02
      2.84000000000000E+00   2.84000000000000E+00   0.00000000000000E+00   0.00000000000000E+00   1.40043630417995E+00
      4.65125608719979E-01   1.86556191289993E+00  -3.45072918776140E-18   0.00000000000000E+00   0.00000000000000E+00
      0.00000000000000E+00   0.00000000000000E+00  -1.40043630417995E+00  -4.65125608719979E-01  -1.86556191289993E+00
      3.45072918776098E-18
      4.00000000000000E-02
      2.68000000000000E+00   2.68000000000000E+00   0.00000000000000E+00   0.00000000000000E+00   1.22519640751812E+00
      4.06925949241616E-01   1.63212235675974E+00  -1.00501111393122E-17   0.00000000000000E+00   0.00000000000000E+00
      0.00000000000000E+00   0.00000000000000E+00  -1.22519640751812E+00  -4.06925949241616E-01  -1.63212235675974E+00
      1.00501111393127E-17
      6.00000000000000E-02
      2.52000000000000E+00   2.52000000000000E+00   0.00000000000000E+00   0.00000000000000E+00   1.05346690003235E+00
      3.49892373921983E-01   1.40335927395433E+00  -1.73076657713154E-17   0.00000000000000E+00   0.00000000000000E+00
      0.00000000000000E+00   0.00000000000000E+00  -1.05346690003235E+00  -3.49892373921983E-01  -1.40335927395433E+00
      1.73076657713155E-17
      8.00000000000000E-02
      2.36000000000000E+00   2.36000000000000E+00   0.00000000000000E+00   0.00000000000000E+00   8.86460287117294E-01
      2.94427488610436E-01   1.18088777572773E+00  -2.54528638050510E-17   0.00000000000000E+00   0.00000000000000E+00
      0.00000000000000E+00   0.00000000000000E+00  -8.86460287117294E-01  -2.94427488610436E-01  -1.18088777572773E+00
      2.54528638050506E-17
      1.00000000000000E-01
      2.20000000000000E+00   2.20000000000000E+00   0.00000000000000E+00   0.00000000000000E+00   7.25826009765313E-01
      2.41078974166295E-01   9.66904983931608E-01  -3.48352584751806E-17   0.00000000000000E+00   0.00000000000000E+00
      0.00000000000000E+00   0.00000000000000E+00  -7.25826009765313E-01  -2.41078974166295E-01  -9.66904983931608E-01
      3.48352584751811E-17
      1.20000000000000E-01
      2.04000000000000E+00   2.04000000000000E+00   0.00000000000000E+00   0.00000000000000E+00   5.73718979349096E-01
      1.90562339000686E-01   7.64281318349782E-01  -4.60135501783111E-17   0.00000000000000E+00   0.00000000000000E+00
      0.00000000000000E+00   0.00000000000000E+00  -5.73718979349096E-01  -1.90562339000686E-01  -7.64281318349782E-01
      4.60135501783112E-17
      1.40000000000000E-01
      1.88000000000000E+00   1.88000000000000E+00   0.00000000000000E+00   0.00000000000000E+00   4.32819365571316E-01
      1.43767485501978E-01   5.76586851073294E-01  -5.99356802078765E-17   0.00000000000000E+00   0.00000000000000E+00
      0.00000000000000E+00   0.00000000000000E+00  -4.32819365571316E-01  -1.43767485501977E-01  -5.76586851073294E-01
      5.99356802078758E-17
      1.60000000000000E-01
      1.72000000000000E+00   1.72000000000000E+00   0.00000000000000E+00   0.00000000000000E+00   3.06277436960837E-01
      1.01740391993544E-01   4.08017828954382E-01  -7.83382814000630E-17   0.00000000000000E+00   0.00000000000000E+00
      0.00000000000000E+00   0.00000000000000E+00  -3.06277436960837E-01  -1.01740391993544E-01  -4.08017828954382E-01
      7.83382814000633E-17
      1.80000000000000E-01
      1.56000000000000E+00   1.56000000000000E+00   0.00000000000000E+00   0.00000000000000E+00   1.97552972420841E-01
      6.56297898122900E-02   2.63182762233131E-01  -1.04754987594746E-16   0.00000000000000E+00   0.00000000000000E+00
      0.00000000000000E+00   0.00000000000000E+00  -1.97552972420841E-01  -6.56297898122900E-02  -2.63182762233131E-01
      1.04754987594745E-16
      2.00000000000000E-01
      1.40000000000000E+00   1.40000000000000E+00   0.00000000000000E+00   0.00000000000000E+00   1.10121192269773E-01
      3.65895197223510E-02   1.46710711992124E-01  -1.47584227742531E-16   0.00000000000000E+00   0.00000000000000E+00
      0.00000000000000E+00   0.00000000000000E+00  -1.10121192269773E-01  -3.65895197223510E-02  -1.46710711992124E-01
      1.47584227742531E-16
      2.20000000000000E-01
      1.24000000000000E+00   1.24000000000000E+00   0.00000000000000E+00   0.00000000000000E+00   4.70531244619294E-02
      1.56391912291505E-02   6.26923156910799E-02  -2.32560339535327E-16   0.00000000000000E+00   0.00000000000000E+00
      0.00000000000000E+00   0.00000000000000E+00  -4.70531244619294E-02  -1.56391912291505E-02  -6.26923156910799E-02
      2.32560339535326E-16
      2.40000000000000E-01
      1.08000000000000E+00   1.08000000000000E+00   0.00000000000000E+00   0.00000000000000E+00   1.05581009927364E-02
      3.51230650373086E-03   1.40704074964673E-02  -4.87779550988685E-16   0.00000000000000E+00   0.00000000000000E+00
      0.00000000000000E+00   0.00000000000000E+00  -1.05581009927364E-02  -3.51230650373086E-03  -1.40704074964673E-02
      4.87779550988685E-16
      2.60000000000000E-01
      9.20000000000000E-01   9.20000000000000E-01   0.00000000000000E+00   0.00000000000000E+00   2.24252208842060E-04
      7.47418223469646E-05   2.98994031189025E-04  -2.17494975707687E-15   0.00000000000000E+00   0.00000000000000E+00
      0.00000000000000E+00   0.00000000000000E+00  -2.24252208842060E-04  -7.47418223469646E-05  -2.98994031189025E-04
      2.17494975707687E-15
      2.80000000000000E-01
      7.60000000000000E-01   7.60000000000000E-01   0.00000000000000E+00   0.00000000000000E+00   4.96388730659596E-07
      1.65467085919187E-07   6.61855816578783E-07  -6.06240539014987E-15   0.00000000000000E+00   0.00000000000000E+00
      0.00000000000000E+00   0.00000000000000E+00  -4.96388730659596E-07  -1.65467085919187E-07  -6.61855816578783E-07
      6.06240539014967E-15
      3.00000000000000E-01
      6.00000000000000E-01   6.00000000000000E-01   0.00000000000000E+00   0.00000000000000E+00   1.01916318209608E-09
      3.39730454467338E-10   1.35889363656342E-09  -1.00026664135554E-14   0.00000000000000E+00   0.00000000000000E+00
      0.00000000000000E+00   0.00000000000000E+00  -1.01916318209608E-09  -3.39730454467338E-10  -1.35889363656342E-09
      1.00026664135553E-14
      3.20000000000000E-01
      4.40000000000000E-01   4.40000000000000E-01   0.00000000000000E+00   0.00000000000000E+00   2.09199090671269E-12
      6.97350833474546E-13   2.78934174018724E-12  -1.38697908177674E-14   0.00000000000000E+00   0.00000000000000E+00
      0.00000000000000E+00   0.00000000000000E+00  -2.09199090671267E-12  -6.97350833474567E-13  -2.78934174018724E-12
      1.38697908177673E-14
      3.40000000000000E-01
      2.80000000000000E-01   2.80000000000000E-01   0.00000000000000E+00   0.00000000000000E+00   4.29404229165488E-15
      1.43138797775615E-15   5.72543026941103E-15  -1.76220574784365E-14   0.00000000000000E+00   0.00000000000000E+00
      0.00000000000000E+00   0.00000000000000E+00  -4.29403814293605E-15  -1.43139212647498E-15  -5.72543026941103E-15
      1.76220574784365E-14
      3.60000000000000E-01
      1.20000000000000E-01   1.20000000000000E-01   0.00000000000000E+00   0.00000000000000E+00   8.72974203744865E-18
     -8.61512473479121E-18   1.14617302657443E-19  -2.11770945492139E-14   0.00000000000000E+00   0.00000000000000E+00
      0.00000000000000E+00   0.00000000000000E+00   2.79548970969319E-18  -2.91010701235063E-18  -1.14617302657445E-19
      2.11770945492139E-14
      3.80000000000000E-01
     -4.00000000000005E-02  -4.00000000000005E-02   0.00000000000000E+00   0.00000000000000E+00  -5.11794146277807E-20
     -3.14178127736268E-15  -3.14183245677731E-15  -2.43578052958613E-14   0.00000000000000E+00   0.00000000000000E+00
      0.00000000000000E+00   0.00000000000000E+00   3.14182595509516E-15   6.50168215226579E-21   3.14183245677731E-15
      2.43578052958613E-14
      4.00000000000000E-01
     -2.00000000000001E-01  -2.00000000000001E-01   0.00000000000000E+00   0.00000000000000E+00   1.39364057351986E-19
     -1.76870204343119E-13  -1.76870064979062E-13  -2.68501132994329E-14   0.00000000000000E+00   0.00000000000000E+00
      0.00000000000000E+00   0.00000000000000E+00   1.76870261909756E-13  -1.96930694160552E-19   1.76870064979062E-13
      2.68501132994328E-14
      4.20000000000000E-01
     -3.60000000000001E-01  -3.60000000000001E-01   0.00000000000000E+00   0.00000000000000E+00   5.77407598571059E-19
     -3.43798681059158E-12  -3.43798623318398E-12  -2.85949244763062E-14   0.00000000000000E+00   0.00000000000000E+00
      0.00000000000000E+00   0.00000000000000E+00   3.43798686993264E-12  -6.36748658738333E-19   3.43798623318398E-12
      2.85949244763061E-14
      4.40000000000000E-01
     -5.20000000000001E-01  -5.20000000000001E-01   0.00000000000000E+00   0.00000000000000E+00   8.28144623743556E-19
     -3.83027520472815E-11  -3.83027512191368E-11  -3.00400170996363E-14   0.00000000000000E+00   0.00000000000000E+00
      0.00000000000000E+00   0.00000000000000E+00   3.83027521076283E-11  -8.88491434434553E-19   3.83027512191368E-11
      3.00400170996361E-14
      4.60000000000000E-01
     -6.80000000000001E-01  -6.80000000000001E-01   0.00000000000000E+00   0.00000000000000E+00   7.77433254240871E-19
     -3.02961703187502E-10  -3.02961702410069E-10  -3.14309234673027E-14   0.00000000000000E+00   0.00000000000000E+00
      0.00000000000000E+00   0.00000000000000E+00   3.02961703247664E-10  -8.37594639974224E-19   3.02961702410069E-10
      3.14309234673028E-14
      4.80000000000000E-01
     -8.40000000000001E-01  -8.40000000000001E-01   0.00000000000000E+00   0.00000000000000E+00   5.41075111149096E-19
     -1.83555563218530E-09  -1.83555563164423E-09  -3.28127770390911E-14   0.00000000000000E+00   0.00000000000000E+00
      0.00000000000000E+00   0.00000000000000E+00   1.83555563224453E-09  -6.00298723229961E-19   1.83555563164423E-09
      3.28127770390909E-14
      5.00000000000000E-01
     -1.00000000000000E+00  -1.00000000000000E+00   0.00000000000000E+00   0.00000000000000E+00   3.48173321338132E-19
     -8.93481096609717E-09  -8.93481096574900E-09  -3.41912840276407E-14   0.00000000000000E+00   0.00000000000000E+00
      0.00000000000000E+00   0.00000000000000E+00   8.93481096615537E-09  -4.06373473545765E-19   8.93481096574899E-09
      3.41912840276410E-14
      5.20000000000000E-01
     -1.16000000000000E+00  -1.16000000000000E+00   0.00000000000000E+00   0.00000000000000E+00   5.31943520373708E-19
     -3.62572406913550E-08  -3.62572406908231E-08  -3.55668146160554E-14   0.00000000000000E+00   0.00000000000000E+00
      0.00000000000000E+00   0.00000000000000E+00   3.62572406914125E-08  -5.89421788040294E-19   3.62572406908230E-08
      3.55668146160556E-14
      5.40000000000000E-01
     -1.32000000000000E+00  -1.32000000000000E+00   0.00000000000000E+00   0.00000000000000E+00  -1.36190994075541E-20
     -1.26315107247783E-07  -1.26315107247797E-07  -3.69389813806990E-14   0.00000000000000E+00   0.00000000000000E+00
      0.00000000000000E+00   0.00000000000000E+00   1.26315107247840E-07  -4.34698430597659E-20   1.26315107247797E-07
      3.69389813806988E-14
      5.60000000000000E-01
     -1.48000000000000E+00  -1.48000000000000E+00   0.00000000000000E+00   0.00000000000000E+00  -5.91609489130445E-20
     -3.86770947337563E-07  -3.86770947337622E-07  -3.83071808109495E-14   0.00000000000000E+00   0.00000000000000E+00
      0.00000000000000E+00   0.00000000000000E+00   3.86770947337620E-07   2.31422959015181E-21   3.86770947337623E-07
      3.83071808109492E-14
      5.80000000000000E-01
     -1.64000000000000E+00  -1.64000000000000E+00   0.00000000000000E+00   0.00000000000000E+00  -7.65627504571917E-20
     -1.06062728153910E-06  -1.06062728153918E-06  -3.96706091423956E-14   0.00000000000000E+00   0.00000000000000E+00
      0.00000000000000E+00   0.00000000000000E+00   1.06062728153916E-06   1.99146562532373E-20   1.06062728153918E-06
      3.96706091423957E-14
      6.00000000000000E-01
     -1.80000000000000E+00  -1.80000000000000E+00   0.00000000000000E+00   0.00000000000000E+00   2.20431540503537E-16
     -2.64466512451997E-06  -2.64466512429953E-06  -4.10281859117265E-14   0.00000000000000E+00   0.00000000000000E+00
      0.00000000000000E+00   0.00000000000000E+00   2.64466512452002E-06  -2.20488475996121E-16   2.64466512429953E-06
      4.10281859117269E-14
      6.20000000000000E-01
     -1.96000000000000E+00  -1.96000000000000E+00   0.00000000000000E+00   0.00000000000000E+00   9.59955503663386E-16
     -6.07021567725127E-06  -6.07021567629132E-06  -4.23784250379509E-14   0.00000000000000E+00   0.00000000000000E+00
      0.00000000000000E+00   0.00000000000000E+00   6.07021567725133E-06  -9.60009575390421E-16   6.07021567629132E-06
      4.23784250379507E-14
      6.40000000000000E-01
     -2.12000000000000E+00  -2.12000000000000E+00   0.00000000000000E+00   0.00000000000000E+00  -8.45084953438484E-20
     -1.29527263786270E-05  -1.29527263786271E-05  -4.37192361281742E-14   0.00000000000000E+00   0.00000000000000E+00
      0.00000000000000E+00   0.00000000000000E+00   1.29527263786271E-05   2.52120508802980E-20   1.29527263786271E-05
      4.37192361281744E-14
      6.60000000000000E-01
     -2.28000000000000E+00  -2.28000000000000E+00   0.00000000000000E+00   0.00000000000000E+00  -8.22508887263321E-20
     -2.58983429375341E-05  -2.58983429375342E-05  -4.50476169472257E-14   0.00000000000000E+00   0.00000000000000E+00
      0.00000000000000E+00   0.00000000000000E+00   2.58983429375342E-05   2.40554711977688E-20   2.58983429375342E-05
      4.50476169472261E-14
      6.80000000000000E-01
     -2.44000000000000E+00  -2.44000000000000E+00   0.00000000000000E+00   0.00000000000000E+00  -9.05846563750893E-20
     -4.88195392089299E-05  -4.88195392089300E-05  -4.63591677368804E-14   0.00000000000000E+00   0.00000000000000E+00
      0.00000000000000E+00   0.00000000000000E+00   4.88195392089299E-05   3.28076630174328E-20   4.88195392089300E-05
      4.63591677368803E-14
      7.00000000000000E-01
     -2.60000000000000E+00  -2.60000000000000E+00   0.00000000000000E+00   0.00000000000000E+00  -9.47672015218074E-20
     -8.71440835717563E-05  -8.71440835717564E-05  -4.76473046654664E-14   0.00000000000000E+00   0.00000000000000E+00
      0.00000000000000E+00   0.00000000000000E+00   8.71440835717563E-05   4.16477332966318E-20   8.71440835717564E-05
      4.76473046654666E-14
      7.20000000000000E-01
     -2.76000000000000E+00  -2.76000000000000E+00   0.00000000000000E+00   0.00000000000000E+00  -5.98517414890452E-20
     -1.47678592737729E-04  -1.47678592737729E-04  -4.89019755399549E-14   0.00000000000000E+00   0.00000000000000E+00
      0.00000000000000E+00   0.00000000000000E+00   1.47678592737729E-04   1.33762242541108E-21   1.47678592737729E-04
      4.89019755399548E-14
      7.40000000000000E-01
     -2.92000000000000E+00  -2.92000000000000E+00   0.00000000000000E+00   0.00000000000000E+00  -4.32485796268020E-20
     -2.37690930423467E-04  -2.37690930423467E-04  -5.01077278689571E-14   0.00000000000000E+00   0.00000000000000E+00
      0.00000000000000E+00   0.00000000000000E+00   2.37690930423466E-04  -2.56641266200053E-20   2.37690930423466E-04
      5.01077278689579E-14
      7.60000000000000E-01
     -3.08000000000000E+00  -3.08000000000000E+00   0.00000000000000E+00   0.00000000000000E+00   6.98620266919642E-19
     -3.62675950497035E-04  -3.62675950497035E-04  -5.12420703664997E-14   0.00000000000000E+00   0.00000000000000E+00
      0.00000000000000E+00   0.00000000000000E+00   3.62675950497037E-04  -7.76788655592710E-19   3.62675950497036E-04
      5.12420703665000E-14
      7.80000000000000E-01
     -3.24000000000000E+00  -3.24000000000000E+00   0.00000000000000E+00   0.00000000000000E+00   1.97296232161629E-17
     -5.23509521567808E-04  -5.23509521567789E-04  -5.22801693789476E-14   0.00000000000000E+00   0.00000000000000E+00
      0.00000000000000E+00   0.00000000000000E+00   5.23509521567809E-04  -1.97926615207711E-17   5.23509521567789E-04
      5.22801693789478E-14
      8.00000000000000E-01
     -3.40000000000000E+00  -3.40000000000000E+00   0.00000000000000E+00   0.00000000000000E+00   5.02037102324768E-18
     -7.18151459523895E-04  -7.18151459523890E-04  -5.32163984992037E-14   0.00000000000000E+00   0.00000000000000E+00
      0.00000000000000E+00   0.00000000000000E+00   7.18151459523897E-04  -5.11368355430797E-18   7.18151459523892E-04
      5.32163984992038E-14
      8.20000000000000E-01
     -3.56000000000000E+00  -3.56000000000000E+00   0.00000000000000E+00   0.00000000000000E+00   6.13208383299604E-19
     -9.50153884399499E-04  -9.50153884399498E-04  -5.40801228842087E-14   0.00000000000000E+00   0.00000000000000E+00
      0.00000000000000E+00   0.00000000000000E+00   9.50153884399500E-04  -5.91123573030607E-19   9.50153884399500E-04
      5.40801228842087E-14
      8.40000000000000E-01
     -3.72000000000000E+00  -3.72000000000000E+00   0.00000000000000E+00   0.00000000000000E+00   3.73887824639090E-19
     -1.23023301431057E-03  -1.23023301431057E-03  -5.49077174932263E-14   0.00000000000000E+00   0.00000000000000E+00
      0.00000000000000E+00   0.00000000000000E+00   1.23023301431057E-03  -8.50992592397075E-19   1.23023301431057E-03
      5.49077174932261E-14
      8.60000000000000E-01
     -3.88000000000000E+00  -3.88000000000000E+00   0.00000000000000E+00   0.00000000000000E+00   6.45904903979661E-19
     -1.57052717614644E-03  -1.57052717614644E-03  -5.57184499994476E-14   0.00000000000000E+00   0.00000000000000E+00
      0.00000000000000E+00   0.00000000000000E+00   1.57052717614644E-03  -6.80255965311418E-19   1.57052717614644E-03
      5.57184499994482E-14
      8.80000000000000E-01
     -4.04000000000000E+00  -4.04000000000000E+00   0.00000000000000E+00   0.00000000000000E+00   4.79042047172920E-19
     -1.98245514399354E-03  -1.98245514399354E-03  -5.65187479374387E-14   0.00000000000000E+00   0.00000000000000E+00
      0.00000000000000E+00   0.00000000000000E+00   1.98245514399355E-03  -9.55693493061626E-19   1.98245514399354E-03
      5.65187479374396E-14
      9.00000000000000E-01
     -4.20000000000000E+00  -4.20000000000000E+00   0.00000000000000E+00   0.00000000000000E+00   2.34412624266680E-19
     -2.47706429427153E-03  -2.47706429427153E-03  -5.73099354106382E-14   0.00000000000000E+00   0.00000000000000E+00
      0.00000000000000E+00   0.00000000000000E+00   2.47706429427153E-03  -4.37802335911806E-19   2.47706429427153E-03
      5.73099354106375E-14
      9.20000000000000E-01
     -4.36000000000000E+00  -4.36000000000000E+00   0.00000000000000E+00   0.00000000000000E+00   1.56639145583526E-20
     -3.06537407857251E-03  -3.06537407857251E-03  -5.80916860662336E-14   0.00000000000000E+00   0.00000000000000E+00
      0.00000000000000E+00   0.00000000000000E+00   3.06537407857251E-03  -2.69919940521905E-19   3.06537407857251E-03
      5.80916860662340E-14
      9.40000000000001E-01
     -4.52000000000000E+00  -4.52000000000000E+00   0.00000000000000E+00   0.00000000000000E+00   1.39406171312048E-16
     -3.75840519750709E-03  -3.75840519750695E-03  -5.88631744102525E-14   0.00000000000000E+00   0.00000000000000E+00
      0.00000000000000E+00   0.00000000000000E+00   3.75840519750709E-03  -1.40652548784999E-16   3.75840519750695E-03
      5.88631744102521E-14
      9.60000000000001E-01
     -4.68000000000000E+00  -4.68000000000000E+00   0.00000000000000E+00   0.00000000000000E+00   2.32579255004987E-16
     -4.56703609280844E-03  -4.56703609280821E-03  -5.96234395319604E-14   0.00000000000000E+00   0.00000000000000E+00
      0.00000000000000E+00   0.00000000000000E+00   4.56703609280845E-03  -2.34711743237326E-16   4.56703609280822E-03
      5.96234395319602E-14
      9.80000000000001E-01
     -4.84000000000000E+00  -4.84000000000000E+00   0.00000000000000E+00   0.00000000000000E+00   4.08770837004183E-16
     -5.50178774404642E-03  -5.50178774404601E-03  -6.03715091686793E-14   0.00000000000000E+00   0.00000000000000E+00
      0.00000000000000E+00   0.00000000000000E+00   5.50178774404642E-03  -4.12378800366979E-16   5.50178774404601E-03
      6.03715091686797E-14
      1.00000000000000E+00
     -5.00000000000000E+00  -5.00000000000000E+00   0.00000000000000E+00   0.00000000000000E+00   7.02537185670607E-16
     -6.57258833085477E-03  -6.57258833085407E-03  -6.11064523229329E-14   0.00000000000000E+00   0.00000000000000E+00
      0.00000000000000E+00   0.00000000000000E+00   6.57258833085478E-03  -7.06273376542094E-16   6.57258833085407E-03
      6.11064523229337E-14
}
