DF-ISE text

Info {
  version   = 1.0
  type      = xyplot
  datasets  = [
    "time"
    "n1contact OuterVoltage" "n1contact InnerVoltage" "n1contact QuasiFermiPotential" "n1contact DisplacementCurrent" "n1contact eCurrent"
    "n1contact hCurrent" "n1contact TotalCurrent" "n1contact Charge" "n2contact OuterVoltage" "n2contact InnerVoltage"
    "n2contact QuasiFermiPotential" "n2contact DisplacementCurrent" "n2contact eCurrent" "n2contact hCurrent" "n2contact TotalCurrent"
    "n2contact Charge" ]
  functions = [
    Time
    OuterVoltage InnerVoltage QuasiFermiPotential DisplacementCurrent eCurrent
    hCurrent TotalCurrent Charge OuterVoltage InnerVoltage
    QuasiFermiPotential DisplacementCurrent eCurrent hCurrent TotalCurrent
    Charge ]
}

Data {
      0.00000000000000E+00
      0.00000000000000E+00   0.00000000000000E+00   0.00000000000000E+00   0.00000000000000E+00   4.56728377980829E-16
     -4.56728377980789E-16   3.97601319874751E-29  -2.36133372259086E-14   0.00000000000000E+00   0.00000000000000E+00
      0.00000000000000E+00   0.00000000000000E+00   4.56728377980799E-16  -4.56728377980839E-16  -3.96571264641914E-29
      2.36133372259086E-14
      0.00000000000000E+00
      0.00000000000000E+00   0.00000000000000E+00   0.00000000000000E+00   0.00000000000000E+00   5.95053678708311E-21
     -9.13450630561919E-16  -9.13444680025132E-16  -2.36133370367112E-14   0.00000000000000E+00   0.00000000000000E+00
      0.00000000000000E+00   0.00000000000000E+00   9.13450653941096E-16  -5.97391596377931E-21   9.13444680025132E-16
      2.36133370367112E-14
      0.00000000000000E+00
      0.00000000000000E+00   0.00000000000000E+00   0.00000000000000E+00   0.00000000000000E+00   5.94687662648656E-21
     -9.13450634222088E-16  -9.13444687345461E-16  -2.36133370367111E-14   0.00000000000000E+00   0.00000000000000E+00
      0.00000000000000E+00   0.00000000000000E+00   9.13450657601249E-16  -5.97025578769977E-21   9.13444687345462E-16
      2.36133370367111E-14
      1.00000000000000E-01
      1.00000000000000E-03   1.00000000000000E-03   0.00000000000000E+00   0.00000000000000E+00   9.14703702081586E-21
     -8.84509769653051E-16  -8.84500622616030E-16  -2.35942190768977E-14   0.00000000000000E+00   0.00000000000000E+00
      0.00000000000000E+00   0.00000000000000E+00   8.84507557360449E-16  -6.93474441945628E-21   8.84500622616030E-16
      2.35942190768977E-14
      2.00000000000000E-01
      2.00000000000000E-03   2.00000000000000E-03   0.00000000000000E+00   0.00000000000000E+00   1.24827197352286E-20
     -8.56429540129285E-16  -8.56417057409550E-16  -2.35750777784032E-14   0.00000000000000E+00   0.00000000000000E+00
      0.00000000000000E+00   0.00000000000000E+00   8.56425004056575E-16  -7.94664702564079E-21   8.56417057409550E-16
      2.35750777784032E-14
      3.00000000000000E-01
      3.00000000000000E-03   3.00000000000000E-03   0.00000000000000E+00   0.00000000000000E+00   1.59603889972345E-20
     -8.29186145280339E-16  -8.29170184891342E-16  -2.35559132366061E-14   0.00000000000000E+00   0.00000000000000E+00
      0.00000000000000E+00   0.00000000000000E+00   8.29179193721750E-16  -9.00883040808942E-21   8.29170184891341E-16
      2.35559132366061E-14
      4.00000000000000E-01
      4.00000000000000E-03   4.00000000000000E-03   0.00000000000000E+00   0.00000000000000E+00   1.95830682973222E-20
     -8.02756390905063E-16  -8.02736807836766E-16  -2.35367255462959E-14   0.00000000000000E+00   0.00000000000000E+00
      0.00000000000000E+00   0.00000000000000E+00   8.02746928758133E-16  -1.01209213662289E-20   8.02736807836766E-16
      2.35367255462959E-14
      5.00000000000000E-01
      5.00000000000000E-03   5.00000000000000E-03   0.00000000000000E+00   0.00000000000000E+00   2.33574831961990E-20
     -7.77117669347164E-16  -7.77094311863968E-16  -2.35175148024248E-14   0.00000000000000E+00   0.00000000000000E+00
      0.00000000000000E+00   0.00000000000000E+00   7.77105597645461E-16  -1.12857814937688E-20   7.77094311863967E-16
      2.35175148024248E-14
      6.00000000000000E-01
      6.00000000000000E-03   6.00000000000000E-03   0.00000000000000E+00   0.00000000000000E+00   2.72894396806768E-20
     -7.52247949880699E-16  -7.52220660441019E-16  -2.34982810996123E-14   0.00000000000000E+00   0.00000000000000E+00
      0.00000000000000E+00   0.00000000000000E+00   7.52233165752955E-16  -1.25053119363590E-20   7.52220660441018E-16
      2.34982810996123E-14
      7.00000000000000E-01
      7.00000000000000E-03   7.00000000000000E-03   0.00000000000000E+00   0.00000000000000E+00   3.13849476257449E-20
     -7.28125764606379E-16  -7.28094379658753E-16  -2.34790245322619E-14   0.00000000000000E+00   0.00000000000000E+00
      0.00000000000000E+00   0.00000000000000E+00   7.28108161125158E-16  -1.37814664048843E-20   7.28094379658753E-16
      2.34790245322618E-14
      8.00000000000000E-01
      8.00000000000000E-03   8.00000000000000E-03   0.00000000000000E+00   0.00000000000000E+00   3.56502720843309E-20
     -7.04730195495216E-16  -7.04694545223132E-16  -2.34597451945579E-14   0.00000000000000E+00   0.00000000000000E+00
      0.00000000000000E+00   0.00000000000000E+00   7.04709661515566E-16  -1.51162924332639E-20   7.04694545223132E-16
      2.34597451945579E-14
      9.00000000000000E-01
      9.00000000000000E-03   9.00000000000000E-03   0.00000000000000E+00   0.00000000000000E+00   4.00919284499026E-20
     -6.82040861735529E-16  -6.82000769807079E-16  -2.34404431804614E-14   0.00000000000000E+00   0.00000000000000E+00
      0.00000000000000E+00   0.00000000000000E+00   6.82017281728677E-16  -1.65119215981018E-20   6.82000769807079E-16
      2.34404431804615E-14
      1.00000000000000E+00
      1.00000000000000E-02   1.00000000000000E-02   0.00000000000000E+00   0.00000000000000E+00   4.47166922753627E-20
     -6.60037907320514E-16  -6.59993190628239E-16  -2.34211185837081E-14   0.00000000000000E+00   0.00000000000000E+00
      0.00000000000000E+00   0.00000000000000E+00   6.60011161201021E-16  -1.79705727817612E-20   6.59993190628239E-16
      2.34211185837081E-14
      0.00000000000000E+00
      1.00000000000000E-02   1.00000000000000E-02   0.00000000000000E+00   0.00000000000000E+00   4.47158234597274E-20
     -6.60037908049228E-16  -6.59993192225768E-16  -2.34211185835969E-14   0.00000000000000E+00   0.00000000000000E+00
      0.00000000000000E+00   0.00000000000000E+00   6.60011162004258E-16  -1.79697784902665E-20   6.59993192225768E-16
      2.34211185835969E-14
      1.00000000000000E-01
      1.90000000000000E-02   1.90000000000000E-02   0.00000000000000E+00   0.00000000000000E+00   9.58393777819891E-20
     -4.89866683245540E-16  -4.89770843867758E-16  -2.32461963420045E-14   0.00000000000000E+00   0.00000000000000E+00
      0.00000000000000E+00   0.00000000000000E+00   4.89805191649799E-16  -3.43477820406386E-20   4.89770843867758E-16
      2.32461963420045E-14
      2.00000000000000E-01
      2.80000000000000E-02   2.80000000000000E-02   0.00000000000000E+00   0.00000000000000E+00   1.68857010713342E-19
     -3.61557942718710E-16  -3.61389085707996E-16  -2.30695196093092E-14   0.00000000000000E+00   0.00000000000000E+00
      0.00000000000000E+00   0.00000000000000E+00   3.61447241198753E-16  -5.81554907570828E-20   3.61389085707996E-16
      2.30695196093091E-14
      3.00000000000000E-01
      3.70000000000000E-02   3.70000000000000E-02   0.00000000000000E+00   0.00000000000000E+00   2.72768750852939E-19
     -2.65340934795537E-16  -2.65068166044684E-16  -2.28911539145319E-14   0.00000000000000E+00   0.00000000000000E+00
      0.00000000000000E+00   0.00000000000000E+00   2.65160535841129E-16  -9.23697964446551E-20   2.65068166044684E-16
      2.28911539145318E-14
      4.00000000000000E-01
      4.60000000000000E-02   4.60000000000000E-02   0.00000000000000E+00   0.00000000000000E+00   4.20342382897922E-19
     -1.93583628416800E-16  -1.93163286033902E-16  -2.27111629100780E-14   0.00000000000000E+00   0.00000000000000E+00
      0.00000000000000E+00   0.00000000000000E+00   1.93304513425032E-16  -1.41227391129991E-19   1.93163286033902E-16
      2.27111629100780E-14
      5.00000000000000E-01
      5.50000000000000E-02   5.50000000000000E-02   0.00000000000000E+00   0.00000000000000E+00   6.29677839861000E-19
     -1.40358030356104E-16  -1.39728352516243E-16  -2.25296082629629E-14   0.00000000000000E+00   0.00000000000000E+00
      0.00000000000000E+00   0.00000000000000E+00   1.39939097535482E-16  -2.10745019238753E-19   1.39728352516243E-16
      2.25296082629628E-14
      6.00000000000000E-01
      6.40000000000000E-02   6.40000000000000E-02   0.00000000000000E+00   0.00000000000000E+00   9.26426134198316E-19
     -1.01085025078381E-16  -1.00158598944183E-16  -2.23465495810581E-14   0.00000000000000E+00   0.00000000000000E+00
      0.00000000000000E+00   0.00000000000000E+00   1.00468058238802E-16  -3.09459294619008E-19   1.00158598944183E-16
      2.23465495810581E-14
      7.00000000000000E-01
      7.30000000000000E-02   7.30000000000000E-02   0.00000000000000E+00   0.00000000000000E+00   1.34693117381961E-18
     -7.22459317828849E-17  -7.08990006090653E-17  -2.21620443685613E-14   0.00000000000000E+00   0.00000000000000E+00
      0.00000000000000E+00   0.00000000000000E+00   7.13484742073880E-17  -4.49473598322656E-19   7.08990006090653E-17
      2.21620443685613E-14
      8.00000000000000E-01
      8.20000000000000E-02   8.20000000000000E-02   0.00000000000000E+00   0.00000000000000E+00   1.94268021401706E-18
     -5.11495310854747E-17  -4.92068508714576E-17  -2.19761480061962E-14   0.00000000000000E+00   0.00000000000000E+00
      0.00000000000000E+00   0.00000000000000E+00   4.98547921764931E-17  -6.47941305035477E-19   4.92068508714576E-17
      2.19761480061962E-14
      9.00000000000000E-01
      9.10000000000000E-02   9.10000000000000E-02   0.00000000000000E+00   0.00000000000000E+00   2.78660763018423E-18
     -3.57447525808495E-17  -3.29581449506653E-17  -2.17889137519264E-14   0.00000000000000E+00   0.00000000000000E+00
      0.00000000000000E+00   0.00000000000000E+00   3.38873117710931E-17  -9.29166820427872E-19   3.29581449506653E-17
      2.17889137519264E-14
      1.00000000000000E+00
      1.00000000000000E-01   1.00000000000000E-01   0.00000000000000E+00   0.00000000000000E+00   3.98202370478058E-18
     -2.44705081155408E-17  -2.04884844107602E-17  -2.16003927584996E-14   0.00000000000000E+00   0.00000000000000E+00
      0.00000000000000E+00   0.00000000000000E+00   2.18160660845823E-17  -1.32758167382212E-18   2.04884844107602E-17
      2.16003927584995E-14
      0.00000000000000E+00
      1.00000000000000E-01   1.00000000000000E-01   0.00000000000000E+00   0.00000000000000E+00   3.98202365658094E-18
     -2.44705081315522E-17  -2.04884844749712E-17  -2.16003927584996E-14   0.00000000000000E+00   0.00000000000000E+00
      0.00000000000000E+00   0.00000000000000E+00   2.18160661327820E-17  -1.32758165781081E-18   2.04884844749712E-17
      2.16003927584995E-14
      2.00000000000000E-02
      1.18000000000000E-01   1.18000000000000E-01   0.00000000000000E+00   0.00000000000000E+00   8.07358950598686E-18
     -9.82009468156805E-18  -1.74650517558119E-18  -2.12196848368016E-14   0.00000000000000E+00   0.00000000000000E+00
      0.00000000000000E+00   0.00000000000000E+00   4.43789476427650E-18  -2.69138958869530E-18   1.74650517558119E-18
      2.12196848368016E-14
      4.00000000000000E-02
      1.36000000000000E-01   1.36000000000000E-01   0.00000000000000E+00   0.00000000000000E+00   1.62820660781575E-17
     -4.72523971675022E-19   1.58095421064825E-17  -2.08343927940405E-14   0.00000000000000E+00   0.00000000000000E+00
      0.00000000000000E+00   0.00000000000000E+00  -1.03819547209529E-17  -5.42758738552962E-18  -1.58095421064825E-17
      2.08343927940405E-14
      6.00000000000000E-02
      1.54000000000000E-01   1.54000000000000E-01   0.00000000000000E+00   0.00000000000000E+00   3.27495958293707E-17
      8.21574754138506E-18   4.09653433707558E-17  -2.04448544216995E-14   0.00000000000000E+00   0.00000000000000E+00
      0.00000000000000E+00   0.00000000000000E+00  -3.00484279227569E-17  -1.09169154479988E-17  -4.09653433707558E-17
      2.04448544216995E-14
      8.00000000000000E-02
      1.72000000000000E-01   1.72000000000000E-01   0.00000000000000E+00   0.00000000000000E+00   6.57859919870277E-17
      2.07309758704808E-17   8.65169678575085E-17  -2.00513787462453E-14   0.00000000000000E+00   0.00000000000000E+00
      0.00000000000000E+00   0.00000000000000E+00  -6.45875788322367E-17  -2.19293890252719E-17  -8.65169678575085E-17
      2.00513787462453E-14
      1.00000000000000E-01
      1.90000000000000E-01   1.90000000000000E-01   0.00000000000000E+00   0.00000000000000E+00   1.32061901376715E-16
      4.35078345174751E-17   1.75569735894190E-16  -1.96542481653890E-14   0.00000000000000E+00   0.00000000000000E+00
      0.00000000000000E+00   0.00000000000000E+00  -1.31547675720372E-16  -4.40220601738181E-17  -1.75569735894190E-16
      1.96542481653890E-14
      1.20000000000000E-01
      2.08000000000000E-01   2.08000000000000E-01   0.00000000000000E+00   0.00000000000000E+00   2.65021347194865E-16
      8.81303631026939E-17   3.53151710297559E-16  -1.92537206067894E-14   0.00000000000000E+00   0.00000000000000E+00
      0.00000000000000E+00   0.00000000000000E+00  -2.64808426694200E-16  -8.83432836033599E-17  -3.53151710297560E-16
      1.92537206067894E-14
      1.40000000000000E-01
      2.26000000000000E-01   2.26000000000000E-01   0.00000000000000E+00   0.00000000000000E+00   5.31758101463581E-16
      1.77173485510614E-16   7.08931586974195E-16  -1.88500316323462E-14   0.00000000000000E+00   0.00000000000000E+00
      0.00000000000000E+00   0.00000000000000E+00  -5.31673240437647E-16  -1.77258346536547E-16  -7.08931586974195E-16
      1.88500316323462E-14
      1.60000000000000E-01
      2.44000000000000E-01   2.44000000000000E-01   0.00000000000000E+00   0.00000000000000E+00   1.06687258192817E-15
      3.55602981037524E-16   1.42247556296569E-15  -1.84433964404749E-14   0.00000000000000E+00   0.00000000000000E+00
      0.00000000000000E+00   0.00000000000000E+00  -1.06684011715648E-15  -3.55635445809213E-16  -1.42247556296569E-15
      1.84433964404749E-14
      1.80000000000000E-01
      2.62000000000000E-01   2.62000000000000E-01   0.00000000000000E+00   0.00000000000000E+00   2.14039399124004E-15
      7.13475204714106E-16   2.85386919595415E-15  -1.80340117393705E-14   0.00000000000000E+00   0.00000000000000E+00
      0.00000000000000E+00   0.00000000000000E+00  -2.14038210675869E-15  -7.13487089195458E-16  -2.85386919595415E-15
      1.80340117393705E-14
      2.00000000000000E-01
      2.80000000000000E-01   2.80000000000000E-01   0.00000000000000E+00   0.00000000000000E+00   4.29404271811559E-15
      1.43138811935689E-15   5.72543083747248E-15  -1.76220574784365E-14   0.00000000000000E+00   0.00000000000000E+00
      0.00000000000000E+00   0.00000000000000E+00  -4.29403856939676E-15  -1.43139226807572E-15  -5.72543083747248E-15
      1.76220574784365E-14
      2.20000000000000E-01
      2.98000000000000E-01   2.98000000000000E-01   0.00000000000000E+00   0.00000000000000E+00   8.61459400550428E-15
      2.87161903963428E-15   1.14862130451386E-14  -1.72076984345762E-14   0.00000000000000E+00   0.00000000000000E+00
      0.00000000000000E+00   0.00000000000000E+00  -8.61459262971246E-15  -2.87162041542609E-15  -1.14862130451386E-14
      1.72076984345762E-14
      2.40000000000000E-01
      3.16000000000000E-01   3.16000000000000E-01   0.00000000000000E+00   0.00000000000000E+00   1.72822882641579E-14
      5.76093986336908E-15   2.30432281275269E-14  -1.67910856561653E-14   0.00000000000000E+00   0.00000000000000E+00
      0.00000000000000E+00   0.00000000000000E+00  -1.72822878325837E-14  -5.76094029494328E-15  -2.30432281275270E-14
      1.67910856561653E-14
      2.60000000000000E-01
      3.34000000000000E-01   3.34000000000000E-01   0.00000000000000E+00   0.00000000000000E+00   3.46710281330212E-14
      1.15573630907728E-14   4.62283912237940E-14  -1.63723577713203E-14   0.00000000000000E+00   0.00000000000000E+00
      0.00000000000000E+00   0.00000000000000E+00  -3.46710280055591E-14  -1.15573632182350E-14  -4.62283912237941E-14
      1.63723577713203E-14
      2.80000000000000E-01
      3.52000000000000E-01   3.52000000000000E-01   0.00000000000000E+00   0.00000000000000E+00   6.95555464087136E-14
      2.31858873016274E-14   9.27414337103410E-14  -1.59516421692165E-14   0.00000000000000E+00   0.00000000000000E+00
      0.00000000000000E+00   0.00000000000000E+00  -6.95555463734550E-14  -2.31858873368861E-14  -9.27414337103410E-14
      1.59516421692165E-14
      3.00000000000000E-01
      3.70000000000000E-01   3.70000000000000E-01   0.00000000000000E+00   0.00000000000000E+00   1.39539331242124E-13
      4.65145158389664E-14   1.86053847081090E-13  -1.55290560642530E-14   0.00000000000000E+00   0.00000000000000E+00
      0.00000000000000E+00   0.00000000000000E+00  -1.39539331233041E-13  -4.65145158480486E-14  -1.86053847081090E-13
      1.55290560642530E-14
      3.20000000000000E-01
      3.88000000000000E-01   3.88000000000000E-01   0.00000000000000E+00   0.00000000000000E+00   2.79937738779031E-13
      9.33153804995107E-14   3.73253119278541E-13  -1.51047074531623E-14   0.00000000000000E+00   0.00000000000000E+00
      0.00000000000000E+00   0.00000000000000E+00  -2.79937738776866E-13  -9.33153805016750E-14  -3.73253119278541E-13
      1.51047074531623E-14
      3.40000000000000E-01
      4.06000000000000E-01   4.06000000000000E-01   0.00000000000000E+00   0.00000000000000E+00   5.61598909128136E-13
      1.87205218197383E-13   7.48804127325520E-13  -1.46786959750000E-14   0.00000000000000E+00   0.00000000000000E+00
      0.00000000000000E+00   0.00000000000000E+00  -5.61598909127660E-13  -1.87205218197857E-13  -7.48804127325517E-13
      1.46786959750000E-14
      3.60000000000000E-01
      4.24000000000000E-01   4.24000000000000E-01   0.00000000000000E+00   0.00000000000000E+00   1.12665531130042E-12
      3.75562893873349E-13   1.50221820517377E-12  -1.42511136834991E-14   0.00000000000000E+00   0.00000000000000E+00
      0.00000000000000E+00   0.00000000000000E+00  -1.12665531130033E-12  -3.75562893873444E-13  -1.50221820517377E-12
      1.42511136834992E-14
      3.80000000000000E-01
      4.42000000000000E-01   4.42000000000000E-01   0.00000000000000E+00   0.00000000000000E+00   2.26024691990710E-12
      7.53437805883724E-13   3.01368472579083E-12  -1.38220457406564E-14   0.00000000000000E+00   0.00000000000000E+00
      0.00000000000000E+00   0.00000000000000E+00  -2.26024691990709E-12  -7.53437805883741E-13  -3.01368472579083E-12
      1.38220457406564E-14
      4.00000000000000E-01
      4.60000000000000E-01   4.60000000000000E-01   0.00000000000000E+00   0.00000000000000E+00   4.53440905611634E-12
      1.51151385386677E-12   6.04592290998311E-12  -1.33915710397438E-14   0.00000000000000E+00   0.00000000000000E+00
      0.00000000000000E+00   0.00000000000000E+00  -4.53440905611634E-12  -1.51151385386677E-12  -6.04592290998311E-12
      1.33915710397438E-14
      4.20000000000000E-01
      4.78000000000000E-01   4.78000000000000E-01   0.00000000000000E+00   0.00000000000000E+00   9.09673365537678E-12
      3.03233255866529E-12   1.21290662140421E-11  -1.29597627652294E-14   0.00000000000000E+00   0.00000000000000E+00
      0.00000000000000E+00   0.00000000000000E+00  -9.09673365537678E-12  -3.03233255866529E-12  -1.21290662140421E-11
      1.29597627652295E-14
      4.40000000000000E-01
      4.96000000000000E-01   4.96000000000000E-01   0.00000000000000E+00   0.00000000000000E+00   1.82494681567450E-11
      6.08333139742343E-12   2.43327995541684E-11  -1.25266888964507E-14   0.00000000000000E+00   0.00000000000000E+00
      0.00000000000000E+00   0.00000000000000E+00  -1.82494681567450E-11  -6.08333139742343E-12  -2.43327995541684E-11
      1.25266888964509E-14
      4.60000000000000E-01
      5.14000000000000E-01   5.14000000000000E-01   0.00000000000000E+00   0.00000000000000E+00   3.66112762268366E-11
      1.22041080756264E-11   4.88153843024630E-11  -1.20924126612892E-14   0.00000000000000E+00   0.00000000000000E+00
      0.00000000000000E+00   0.00000000000000E+00  -3.66112762268366E-11  -1.22041080756264E-11  -4.88153843024630E-11
      1.20924126612892E-14
      4.80000000000000E-01
      5.32000000000000E-01   5.32000000000000E-01   0.00000000000000E+00   0.00000000000000E+00   7.34479053329533E-11
      2.44833310165748E-11   9.79312363495281E-11  -1.16569929456689E-14   0.00000000000000E+00   0.00000000000000E+00
      0.00000000000000E+00   0.00000000000000E+00  -7.34479053329533E-11  -2.44833310165748E-11  -9.79312363495281E-11
      1.16569929456688E-14
      5.00000000000000E-01
      5.50000000000000E-01   5.50000000000000E-01   0.00000000000000E+00   0.00000000000000E+00   1.47347853676061E-10
      4.91173374031757E-11   1.96465191079237E-10  -1.12204846644920E-14   0.00000000000000E+00   0.00000000000000E+00
      0.00000000000000E+00   0.00000000000000E+00  -1.47347853676061E-10  -4.91173374031757E-11  -1.96465191079237E-10
      1.12204846644918E-14
      5.20000000000000E-01
      5.68000000000000E-01   5.68000000000000E-01   0.00000000000000E+00   0.00000000000000E+00   2.95602444589125E-10
      9.85369090231236E-11   3.94139353612248E-10  -1.07829390998392E-14   0.00000000000000E+00   0.00000000000000E+00
      0.00000000000000E+00   0.00000000000000E+00  -2.95602444589125E-10  -9.85369090231236E-11  -3.94139353612248E-10
      1.07829390998392E-14
      5.40000000000000E-01
      5.86000000000000E-01   5.86000000000000E-01   0.00000000000000E+00   0.00000000000000E+00   5.93023602937120E-10
      1.97680032286844E-10   7.90703635223964E-10  -1.03444042132114E-14   0.00000000000000E+00   0.00000000000000E+00
      0.00000000000000E+00   0.00000000000000E+00  -5.93023602937120E-10  -1.97680032286844E-10  -7.90703635223964E-10
      1.03444042132115E-14
      5.60000000000000E-01
      6.04000000000000E-01   6.04000000000000E-01   0.00000000000000E+00   0.00000000000000E+00   1.18969493289899E-09
      3.96575924738962E-10   1.58627085763795E-09  -9.90492494098218E-15   0.00000000000000E+00   0.00000000000000E+00
      0.00000000000000E+00   0.00000000000000E+00  -1.18969493289899E-09  -3.96575924738962E-10  -1.58627085763795E-09
      9.90492494098212E-15
      5.80000000000000E-01
      6.22000000000000E-01   6.22000000000000E-01   0.00000000000000E+00   0.00000000000000E+00   2.38670538216984E-09
      7.95590253639089E-10   3.18229563580893E-09  -9.46454348732851E-15   0.00000000000000E+00   0.00000000000000E+00
      0.00000000000000E+00   0.00000000000000E+00  -2.38670538216984E-09  -7.95590253639089E-10  -3.18229563580893E-09
      9.46454348732850E-15
      6.00000000000000E-01
      6.40000000000000E-01   6.40000000000000E-01   0.00000000000000E+00   0.00000000000000E+00   4.78808021280695E-09
      1.59607011183443E-09   6.38415032464138E-09  -9.02329963931643E-15   0.00000000000000E+00   0.00000000000000E+00
      0.00000000000000E+00   0.00000000000000E+00  -4.78808021280695E-09  -1.59607011183443E-09  -6.38415032464138E-09
      9.02329963931644E-15
      6.20000000000000E-01
      6.58000000000000E-01   6.58000000000000E-01   0.00000000000000E+00   0.00000000000000E+00   9.60557038009857E-09
      3.20194309525968E-09   1.28075134753583E-08  -8.58123114955470E-15   0.00000000000000E+00   0.00000000000000E+00
      0.00000000000000E+00   0.00000000000000E+00  -9.60557038009857E-09  -3.20194309525968E-09  -1.28075134753583E-08
      8.58123114955483E-15
      6.40000000000000E-01
      6.76000000000000E-01   6.76000000000000E-01   0.00000000000000E+00   0.00000000000000E+00   1.92700822610231E-08
      6.42353240032047E-09   2.56936146613436E-08  -8.13837427281442E-15   0.00000000000000E+00   0.00000000000000E+00
      0.00000000000000E+00   0.00000000000000E+00  -1.92700822610231E-08  -6.42353240032047E-09  -2.56936146613436E-08
      8.13837427281442E-15
      6.60000000000000E-01
      6.94000000000000E-01   6.94000000000000E-01   0.00000000000000E+00   0.00000000000000E+00   3.86582148010875E-08
      1.28864127923443E-08   5.15446275934319E-08  -7.69476462367554E-15   0.00000000000000E+00   0.00000000000000E+00
      0.00000000000000E+00   0.00000000000000E+00  -3.86582148010875E-08  -1.28864127923443E-08  -5.15446275934319E-08
      7.69476462367565E-15
      6.80000000000000E-01
      7.12000000000000E-01   7.12000000000000E-01   0.00000000000000E+00   0.00000000000000E+00   7.75525758112052E-08
      2.58515361983599E-08   1.03404112009565E-07  -7.25043868080158E-15   0.00000000000000E+00   0.00000000000000E+00
      0.00000000000000E+00   0.00000000000000E+00  -7.75525758112052E-08  -2.58515361983599E-08  -1.03404112009565E-07
      7.25043868080136E-15
      7.00000000000000E-01
      7.30000000000000E-01   7.30000000000000E-01   0.00000000000000E+00   0.00000000000000E+00   1.55576414103955E-07
      5.18601483433536E-08   2.07436562447309E-07  -6.80543657477472E-15   0.00000000000000E+00   0.00000000000000E+00
      0.00000000000000E+00   0.00000000000000E+00  -1.55576414103955E-07  -5.18601483433536E-08  -2.07436562447309E-07
      6.80543657477447E-15
      7.20000000000000E-01
      7.48000000000000E-01   7.48000000000000E-01   0.00000000000000E+00   0.00000000000000E+00   3.12088885818774E-07
      1.04032285810147E-07   4.16121171628921E-07  -6.35980740724669E-15   0.00000000000000E+00   0.00000000000000E+00
      0.00000000000000E+00   0.00000000000000E+00  -3.12088885818774E-07  -1.04032285810147E-07  -4.16121171628921E-07
      6.35980740724655E-15
      7.40000000000000E-01
      7.66000000000000E-01   7.66000000000000E-01   0.00000000000000E+00   0.00000000000000E+00   6.26019487391734E-07
      2.08678390854485E-07   8.34697878246219E-07  -5.91361954510698E-15   0.00000000000000E+00   0.00000000000000E+00
      0.00000000000000E+00   0.00000000000000E+00  -6.26019487391734E-07  -2.08678390854485E-07  -8.34697878246219E-07
      5.91361954510692E-15
      7.60000000000000E-01
      7.84000000000000E-01   7.84000000000000E-01   0.00000000000000E+00   0.00000000000000E+00   1.25559207887954E-06
      4.18540879200945E-07   1.67413295808048E-06  -5.46698066486999E-15   0.00000000000000E+00   0.00000000000000E+00
      0.00000000000000E+00   0.00000000000000E+00  -1.25559207887954E-06  -4.18540879200945E-07  -1.67413295808048E-06
      5.46698066486997E-15
      7.80000000000000E-01
      8.02000000000000E-01   8.02000000000000E-01   0.00000000000000E+00   0.00000000000000E+00   2.51775233382596E-06
      8.39270227220600E-07   3.35702256104656E-06  -5.02007682583714E-15   0.00000000000000E+00   0.00000000000000E+00
      0.00000000000000E+00   0.00000000000000E+00  -2.51775233382596E-06  -8.39270227220600E-07  -3.35702256104656E-06
      5.02007682583720E-15
      8.00000000000000E-01
      8.20000000000000E-01   8.20000000000000E-01   0.00000000000000E+00   0.00000000000000E+00   5.04645884673376E-06
      1.68218850430181E-06   6.72864735103557E-06  -4.57324838256467E-15   0.00000000000000E+00   0.00000000000000E+00
      0.00000000000000E+00   0.00000000000000E+00  -5.04645884673376E-06  -1.68218850430181E-06  -6.72864735103557E-06
      4.57324838256454E-15
      8.20000000000000E-01
      8.38000000000000E-01   8.38000000000000E-01   0.00000000000000E+00   0.00000000000000E+00   1.01060672995356E-05
      3.36874764826215E-06   1.34748149477977E-05  -4.12713606160618E-15   0.00000000000000E+00   0.00000000000000E+00
      0.00000000000000E+00   0.00000000000000E+00  -1.01060672995356E-05  -3.36874764826215E-06  -1.34748149477977E-05
      4.12713606160622E-15
      8.40000000000000E-01
      8.56000000000000E-01   8.56000000000000E-01   0.00000000000000E+00   0.00000000000000E+00   2.02036196694894E-05
      6.73460893510036E-06   2.69382286045898E-05  -3.68295624341981E-15   0.00000000000000E+00   0.00000000000000E+00
      0.00000000000000E+00   0.00000000000000E+00  -2.02036196694894E-05  -6.73460893510036E-06  -2.69382286045898E-05
      3.68295624341986E-15
      8.60000000000000E-01
      8.74000000000000E-01   8.74000000000000E-01   0.00000000000000E+00   0.00000000000000E+00   4.02538268248308E-05
      1.34178964754596E-05   5.36717233002904E-05  -3.24299771170950E-15   0.00000000000000E+00   0.00000000000000E+00
      0.00000000000000E+00   0.00000000000000E+00  -4.02538268248308E-05  -1.34178964754596E-05  -5.36717233002904E-05
      3.24299771170959E-15
      8.80000000000000E-01
      8.92000000000000E-01   8.92000000000000E-01   0.00000000000000E+00   0.00000000000000E+00   7.96804190311412E-05
      2.65593577413362E-05   1.06239776772477E-04  -2.81143997077089E-15   0.00000000000000E+00   0.00000000000000E+00
      0.00000000000000E+00   0.00000000000000E+00  -7.96804190311412E-05  -2.65593577413362E-05  -1.06239776772477E-04
      2.81143997077095E-15
      9.00000000000000E-01
      9.10000000000000E-01   9.10000000000000E-01   0.00000000000000E+00   0.00000000000000E+00   1.55815766833225E-04
      5.19345534394156E-05   2.07750320272641E-04  -2.39544998742458E-15   0.00000000000000E+00   0.00000000000000E+00
      0.00000000000000E+00   0.00000000000000E+00  -1.55815766833225E-04  -5.19345534394156E-05  -2.07750320272641E-04
      2.39544998742457E-15
      9.20000000000000E-01
      9.28000000000000E-01   9.28000000000000E-01   0.00000000000000E+00   0.00000000000000E+00   2.98254659336977E-04
      9.94020684049204E-05   3.97656727741898E-04  -2.00595527321275E-15   0.00000000000000E+00   0.00000000000000E+00
      0.00000000000000E+00   0.00000000000000E+00  -2.98254659336977E-04  -9.94020684049204E-05  -3.97656727741898E-04
      2.00595527321274E-15
      9.40000000000001E-01