DF-ISE text

Info {
  version   = 1.0
  type      = xyplot
  datasets  = [
    "time"
    "n1contact OuterVoltage" "n1contact InnerVoltage" "n1contact QuasiFermiPotential" "n1contact DisplacementCurrent" "n1contact eCurrent"
    "n1contact hCurrent" "n1contact TotalCurrent" "n1contact Charge" "n2contact OuterVoltage" "n2contact InnerVoltage"
    "n2contact QuasiFermiPotential" "n2contact DisplacementCurrent" "n2contact eCurrent" "n2contact hCurrent" "n2contact TotalCurrent"
    "n2contact Charge" ]
  functions = [
    Time
    OuterVoltage InnerVoltage QuasiFermiPotential DisplacementCurrent eCurrent
    hCurrent TotalCurrent Charge OuterVoltage InnerVoltage
    QuasiFermiPotential DisplacementCurrent eCurrent hCurrent TotalCurrent
    Charge ]
}

Data {
      0.00000000000000E+00
      3.00000000000000E+00   3.00000000000000E+00   0.00000000000000E+00   0.00000000000000E+00   1.66830675391344E-01
      5.54090094982965E-02   2.22239684889640E-01   6.41004761089696E-18   0.00000000000000E+00   0.00000000000000E+00
      0.00000000000000E+00   0.00000000000000E+00  -1.66830675391344E-01  -5.54090094982966E-02  -2.22239684889640E-01
     -6.41004761089690E-18
      2.00000000000000E-02
      2.84000000000000E+00   2.84000000000000E+00   0.00000000000000E+00   0.00000000000000E+00   1.49100361955411E-01
      4.95204674909547E-02   1.98620829446366E-01   6.38211026349151E-19   0.00000000000000E+00   0.00000000000000E+00
      0.00000000000000E+00   0.00000000000000E+00  -1.49100361955411E-01  -4.95204674909547E-02  -1.98620829446366E-01
     -6.38211026349152E-19
      4.00000000000000E-02
      2.68000000000000E+00   2.68000000000000E+00   0.00000000000000E+00   0.00000000000000E+00   1.31573011471364E-01
      4.36993644291211E-02   1.75272375900485E-01  -5.55644683120853E-18   0.00000000000000E+00   0.00000000000000E+00
      0.00000000000000E+00   0.00000000000000E+00  -1.31573011471364E-01  -4.36993644291211E-02  -1.75272375900485E-01
      5.55644683120883E-18
      6.00000000000000E-02
      2.52000000000000E+00   2.52000000000000E+00   0.00000000000000E+00   0.00000000000000E+00   1.14321964701307E-01
      3.79700533208659E-02   1.52292018022173E-01  -1.22959656878834E-17   0.00000000000000E+00   0.00000000000000E+00
      0.00000000000000E+00   0.00000000000000E+00  -1.14321964701307E-01  -3.79700533208659E-02  -1.52292018022173E-01
      1.22959656878838E-17
      8.00000000000000E-02
      2.36000000000000E+00   2.36000000000000E+00   0.00000000000000E+00   0.00000000000000E+00   9.74498909713135E-02
      3.23666252872305E-02   1.29816516258544E-01  -1.97551899108621E-17   0.00000000000000E+00   0.00000000000000E+00
      0.00000000000000E+00   0.00000000000000E+00  -9.74498909713135E-02  -3.23666252872305E-02  -1.29816516258544E-01
      1.97551899108617E-17
      1.00000000000000E-01
      2.20000000000000E+00   2.20000000000000E+00   0.00000000000000E+00   0.00000000000000E+00   8.10983918562569E-02
      2.69360981728867E-02   1.08034490029144E-01  -2.81931145112441E-17   0.00000000000000E+00   0.00000000000000E+00
      0.00000000000000E+00   0.00000000000000E+00  -8.10983918562569E-02  -2.69360981728867E-02  -1.08034490029144E-01
      2.81931145112442E-17
      1.20000000000000E-01
      2.04000000000000E+00   2.04000000000000E+00   0.00000000000000E+00   0.00000000000000E+00   6.54564677166022E-02
      2.17412274541127E-02   8.71976951707149E-02  -3.80097095090133E-17   0.00000000000000E+00   0.00000000000000E+00
      0.00000000000000E+00   0.00000000000000E+00  -6.54564677166022E-02  -2.17412274541127E-02  -8.71976951707149E-02
      3.80097095090134E-17
      1.40000000000000E-01
      1.88000000000000E+00   1.88000000000000E+00   0.00000000000000E+00   0.00000000000000E+00   5.07654662471294E-02
      1.68621489527715E-02   6.76276151999009E-02  -4.98551891401249E-17   0.00000000000000E+00   0.00000000000000E+00
      0.00000000000000E+00   0.00000000000000E+00  -5.07654662471294E-02  -1.68621489527715E-02  -6.76276151999009E-02
      4.98551891401249E-17
      1.60000000000000E-01
      1.72000000000000E+00   1.72000000000000E+00   0.00000000000000E+00   0.00000000000000E+00   3.73180119115623E-02
      1.23960229972952E-02   4.97140349088574E-02  -6.48564031069263E-17   0.00000000000000E+00   0.00000000000000E+00
      0.00000000000000E+00   0.00000000000000E+00  -3.73180119115623E-02  -1.23960229972952E-02  -4.97140349088574E-02
      6.48564031069260E-17
      1.80000000000000E-01
      1.56000000000000E+00   1.56000000000000E+00   0.00000000000000E+00   0.00000000000000E+00   2.54481379107991E-02
      8.45375762653851E-03   3.39018955373376E-02  -8.51364770218636E-17   0.00000000000000E+00   0.00000000000000E+00
      0.00000000000000E+00   0.00000000000000E+00  -2.54481379107991E-02  -8.45375762653851E-03  -3.39018955373376E-02
      8.51364770218647E-17
      2.00000000000000E-01
      1.40000000000000E+00   1.40000000000000E+00   0.00000000000000E+00   0.00000000000000E+00   1.55095049409461E-02
      5.15277627663174E-03   2.06622812175779E-02  -1.15193145271729E-16   0.00000000000000E+00   0.00000000000000E+00
      0.00000000000000E+00   0.00000000000000E+00  -1.55095049409461E-02  -5.15277627663174E-03  -2.06622812175779E-02
      1.15193145271729E-16
      2.20000000000000E-01
      1.24000000000000E+00   1.24000000000000E+00   0.00000000000000E+00   0.00000000000000E+00   7.83989600676145E-03
      2.60522841328562E-03   1.04451244200471E-02  -1.66418724899361E-16   0.00000000000000E+00   0.00000000000000E+00
      0.00000000000000E+00   0.00000000000000E+00  -7.83989600676145E-03  -2.60522841328562E-03  -1.04451244200471E-02
      1.66418724899361E-16
      2.40000000000000E-01
      1.08000000000000E+00   1.08000000000000E+00   0.00000000000000E+00   0.00000000000000E+00   2.71604250203551E-03
      9.02989376313918E-04   3.61903187834943E-03  -2.77929399995324E-16   0.00000000000000E+00   0.00000000000000E+00
      0.00000000000000E+00   0.00000000000000E+00  -2.71604250203551E-03  -9.02989376313918E-04  -3.61903187834943E-03
      2.77929399995325E-16
      2.60000000000000E-01
      9.20000000000000E-01   9.20000000000000E-01   0.00000000000000E+00   0.00000000000000E+00   3.02288698449301E-04
      1.00650719823518E-04   4.02939418272819E-04  -6.92206850393658E-16   0.00000000000000E+00   0.00000000000000E+00
      0.00000000000000E+00   0.00000000000000E+00  -3.02288698449301E-04  -1.00650719823518E-04  -4.02939418272819E-04
      6.92206850393656E-16
      2.80000000000000E-01
      7.60000000000000E-01   7.60000000000000E-01   0.00000000000000E+00   0.00000000000000E+00   1.46714300121445E-06
      4.89059390805185E-07   1.95620239201964E-06  -2.44781922484086E-15   0.00000000000000E+00   0.00000000000000E+00
      0.00000000000000E+00   0.00000000000000E+00  -1.46714300121445E-06  -4.89059390805185E-07  -1.95620239201964E-06
      2.44781922484086E-15
      3.00000000000000E-01
      6.00000000000000E-01   6.00000000000000E-01   0.00000000000000E+00   0.00000000000000E+00   3.03302298753492E-09
      1.01105206667821E-09   4.04407505421313E-09  -4.05600451362114E-15   0.00000000000000E+00   0.00000000000000E+00
      0.00000000000000E+00   0.00000000000000E+00  -3.03302298753492E-09  -1.01105206667821E-09  -4.04407505421313E-09
      4.05600451362117E-15
      3.20000000000000E-01
      4.40000000000000E-01   4.40000000000000E-01   0.00000000000000E+00   0.00000000000000E+00   6.23412003576958E-12
      2.07814599105033E-12   8.31226602681991E-12  -5.19801876811440E-15   0.00000000000000E+00   0.00000000000000E+00
      0.00000000000000E+00   0.00000000000000E+00  -6.23412003576958E-12  -2.07814599105033E-12  -8.31226602681991E-12
      5.19801876811448E-15
      3.40000000000000E-01
      2.80000000000000E-01   2.80000000000000E-01   0.00000000000000E+00   0.00000000000000E+00   1.28093471229260E-14
      4.27002509129531E-15   1.70793722142213E-14  -6.14014461640570E-15   0.00000000000000E+00   0.00000000000000E+00
      0.00000000000000E+00   0.00000000000000E+00  -1.28093471229260E-14  -4.27002509129531E-15  -1.70793722142214E-14
      6.14014461640585E-15
      3.60000000000000E-01
      1.20000000000000E-01   1.20000000000000E-01   0.00000000000000E+00   0.00000000000000E+00   2.60616826328029E-17
      8.68776537665601E-18   3.47494480094589E-17  -6.94867208547925E-15   0.00000000000000E+00   0.00000000000000E+00
      0.00000000000000E+00   0.00000000000000E+00  -2.60616826328029E-17  -8.68776537665601E-18  -3.47494480094589E-17
      6.94867208547918E-15
      3.80000000000000E-01
     -4.00000000000005E-02  -4.00000000000005E-02   0.00000000000000E+00   0.00000000000000E+00  -2.01278601826584E-19
     -6.70955383406326E-20  -2.68374140167216E-19  -7.67371291296703E-15   0.00000000000000E+00   0.00000000000000E+00
      0.00000000000000E+00   0.00000000000000E+00   2.01278601826635E-19   6.70955383405809E-20   2.68374140167216E-19
      7.67371291296701E-15
      4.00000000000000E-01
     -2.00000000000001E-01  -2.00000000000001E-01   0.00000000000000E+00   0.00000000000000E+00  -2.54157037171612E-19
     -8.47249556285934E-20  -3.38881992800205E-19  -8.33997405703214E-15   0.00000000000000E+00   0.00000000000000E+00
      0.00000000000000E+00   0.00000000000000E+00   2.54157037228755E-19   8.47249555714504E-20   3.38881992800206E-19
      8.33997405703194E-15
      4.20000000000000E-01
     -3.60000000000001E-01  -3.60000000000001E-01   0.00000000000000E+00   0.00000000000000E+00  -2.54489924110261E-19
     -8.48363023252723E-20  -3.39326226435533E-19  -8.95474565394102E-15   0.00000000000000E+00   0.00000000000000E+00
      0.00000000000000E+00   0.00000000000000E+00   2.54489936879247E-19   8.48362895562860E-20   3.39326226435533E-19
      8.95474565394113E-15
      4.40000000000000E-01
     -5.20000000000001E-01  -5.20000000000001E-01   0.00000000000000E+00   0.00000000000000E+00  -2.54721326000235E-19
     -8.49147028499491E-20  -3.39636028850184E-19  -9.52725186482643E-15   0.00000000000000E+00   0.00000000000000E+00
      0.00000000000000E+00   0.00000000000000E+00   2.54722292690094E-19   8.49137361600896E-20   3.39636028850184E-19
      9.52725186482630E-15
      4.60000000000000E-01
     -6.80000000000001E-01  -6.80000000000001E-01   0.00000000000000E+00   0.00000000000000E+00  -2.54938350217952E-19
     -8.50211320178367E-20  -3.39959482235789E-19  -1.00684209719994E-14   0.00000000000000E+00   0.00000000000000E+00
      0.00000000000000E+00   0.00000000000000E+00   2.54973111206541E-19   8.49863710292491E-20   3.39959482235790E-19
      1.00684209719992E-14
      4.80000000000000E-01
     -8.40000000000001E-01  -8.40000000000001E-01   0.00000000000000E+00   0.00000000000000E+00  -2.55145320468940E-19
     -8.57784369649872E-20  -3.40923757433927E-19  -1.05842020374807E-14   0.00000000000000E+00   0.00000000000000E+00
      0.00000000000000E+00   0.00000000000000E+00   2.55868115996015E-19   8.50556414379134E-20   3.40923757433928E-19
      1.05842020374807E-14
      5.00000000000000E-01
     -1.00000000000000E+00  -1.00000000000000E+00   0.00000000000000E+00   0.00000000000000E+00  -2.55344646373841E-19
     -9.48824077408970E-20  -3.50227054114738E-19  -1.10761069329604E-14   0.00000000000000E+00   0.00000000000000E+00
      0.00000000000000E+00   0.00000000000000E+00   2.65104700316112E-19   8.51223537986291E-20   3.50227054114741E-19
      1.10761069329606E-14
      5.20000000000000E-01
     -1.16000000000000E+00  -1.16000000000000E+00   0.00000000000000E+00   0.00000000000000E+00  -2.55536211929252E-19
     -1.78335825166667E-19  -4.33872037095918E-19  -1.15453819146240E-14   0.00000000000000E+00   0.00000000000000E+00
      0.00000000000000E+00   0.00000000000000E+00   3.48685567858255E-19   8.51864692376641E-20   4.33872037095919E-19
      1.15453819146240E-14
      5.40000000000000E-01
     -1.32000000000000E+00  -1.32000000000000E+00   0.00000000000000E+00   0.00000000000000E+00  -2.55719416184775E-19
     -7.60634083590685E-19  -1.01635349977546E-18  -1.19951692740708E-14   0.00000000000000E+00   0.00000000000000E+00
      0.00000000000000E+00   0.00000000000000E+00   9.31105713202549E-19   8.52477865729096E-20   1.01635349977546E-18
      1.19951692740707E-14
      5.60000000000000E-01
     -1.48000000000000E+00  -1.48000000000000E+00   0.00000000000000E+00   0.00000000000000E+00  -2.55895023598545E-19
     -4.02608870529136E-18  -4.28198372888990E-18  -1.24292185482030E-14   0.00000000000000E+00   0.00000000000000E+00
      0.00000000000000E+00   0.00000000000000E+00   4.19667716727255E-18   8.53065616173507E-20   4.28198372888990E-18
      1.24292185482031E-14
      5.80000000000000E-01
     -1.64000000000000E+00  -1.64000000000000E+00   0.00000000000000E+00   0.00000000000000E+00  -2.56064870817688E-19
     -1.93410730609651E-17  -1.95971379317828E-17  -1.28499181979757E-14   0.00000000000000E+00   0.00000000000000E+00
      0.00000000000000E+00   0.00000000000000E+00   1.95117745227315E-17   8.53634090512545E-20   1.95971379317828E-17
      1.28499181979754E-14
      6.00000000000000E-01
     -1.80000000000000E+00  -1.80000000000000E+00   0.00000000000000E+00   0.00000000000000E+00  -2.56230532828648E-19
     -8.09583286949329E-17  -8.12145592277615E-17  -1.32579947239505E-14   0.00000000000000E+00   0.00000000000000E+00
      0.00000000000000E+00   0.00000000000000E+00   8.11291403717706E-17   8.54188559910724E-20   8.12145592277617E-17
      1.32579947239506E-14
      6.20000000000000E-01
     -1.96000000000000E+00  -1.96000000000000E+00   0.00000000000000E+00   0.00000000000000E+00  -2.56392491411847E-19
     -2.97675860011445E-16  -2.97932252502856E-16  -1.36534775632192E-14   0.00000000000000E+00   0.00000000000000E+00
      0.00000000000000E+00   0.00000000000000E+00   2.97846779439190E-16   8.54730636666491E-20   2.97932252502857E-16
      1.36534775632191E-14
      6.40000000000000E-01
     -2.12000000000000E+00  -2.12000000000000E+00   0.00000000000000E+00   0.00000000000000E+00  -2.56550271639723E-19
     -9.76139983805991E-16  -9.76396534077630E-16  -1.40368077399436E-14   0.00000000000000E+00   0.00000000000000E+00
      0.00000000000000E+00   0.00000000000000E+00   9.76311008204529E-16   8.55258730998450E-20   9.76396534077629E-16
      1.40368077399437E-14
      6.60000000000000E-01
     -2.28000000000000E+00  -2.28000000000000E+00   0.00000000000000E+00   0.00000000000000E+00  -2.56703300035931E-19
     -2.90170497702600E-15  -2.90196168032604E-15  -1.44092558852708E-14   0.00000000000000E+00   0.00000000000000E+00
      0.00000000000000E+00   0.00000000000000E+00   2.90187610323371E-15   8.55770923165327E-20   2.90196168032603E-15
      1.44092558852707E-14
      6.80000000000000E-01
     -2.44000000000000E+00  -2.44000000000000E+00   0.00000000000000E+00   0.00000000000000E+00  -2.56851675421741E-19
     -7.93634534494293E-15  -7.93660219661835E-15  -1.47724463730105E-14   0.00000000000000E+00   0.00000000000000E+00
      0.00000000000000E+00   0.00000000000000E+00   7.93651656986394E-15   8.56267543862233E-20   7.93660219661832E-15
      1.47724463730105E-14
      7.00000000000000E-01
     -2.60000000000000E+00  -2.60000000000000E+00   0.00000000000000E+00   0.00000000000000E+00  -2.56996203751697E-19
     -2.02046950393078E-14  -2.02049520355116E-14  -1.51276294159834E-14   0.00000000000000E+00   0.00000000000000E+00
      0.00000000000000E+00   0.00000000000000E+00   2.02048663603827E-14   8.56751289799207E-20   2.02049520355116E-14
      1.51276294159836E-14
      7.20000000000000E-01
     -2.76000000000000E+00  -2.76000000000000E+00   0.00000000000000E+00   0.00000000000000E+00  -2.57137890309466E-19
     -4.82741630415704E-14  -4.82744201794607E-14  -1.54753687278224E-14   0.00000000000000E+00   0.00000000000000E+00
      0.00000000000000E+00   0.00000000000000E+00   4.82743344569081E-14   8.57225526469444E-20   4.82744201794608E-14
      1.54753687278223E-14
      7.40000000000000E-01
     -2.92000000000000E+00  -2.92000000000000E+00   0.00000000000000E+00   0.00000000000000E+00  -2.57277414994182E-19
     -1.08883373657377E-13  -1.08883630934792E-13  -1.58157034867857E-14   0.00000000000000E+00   0.00000000000000E+00
      0.00000000000000E+00   0.00000000000000E+00   1.08883545165539E-13   8.57692529295897E-20   1.08883630934792E-13
      1.58157034867860E-14
      7.60000000000000E-01
     -3.08000000000000E+00  -3.08000000000000E+00   0.00000000000000E+00   0.00000000000000E+00  -2.57414879853038E-19
     -2.32973006049914E-13  -2.32973263464793E-13  -1.61485387468909E-14   0.00000000000000E+00   0.00000000000000E+00
      0.00000000000000E+00   0.00000000000000E+00   2.32973177649530E-13   8.58152637481988E-20   2.32973263464794E-13
      1.61485387468910E-14
      7.80000000000000E-01
     -3.24000000000000E+00  -3.24000000000000E+00   0.00000000000000E+00   0.00000000000000E+00  -2.57549909801810E-19
     -4.75161150172412E-13  -4.75161407722321E-13  -1.64740213184050E-14   0.00000000000000E+00   0.00000000000000E+00
      0.00000000000000E+00   0.00000000000000E+00   4.75161321861862E-13   8.58604600589373E-20   4.75161407722322E-13
      1.64740213184052E-14
      8.00000000000000E-01
     -3.40000000000000E+00  -3.40000000000000E+00   0.00000000000000E+00   0.00000000000000E+00  -2.57682036154590E-19
     -9.28471970511922E-13  -9.28472228193958E-13  -1.67926925043107E-14   0.00000000000000E+00   0.00000000000000E+00
      0.00000000000000E+00   0.00000000000000E+00   9.28472142289276E-13   8.59046841732391E-20   9.28472228193960E-13
      1.67926925043108E-14
      8.20000000000000E-01
     -3.56000000000000E+00  -3.56000000000000E+00   0.00000000000000E+00   0.00000000000000E+00  -2.57811095677546E-19
     -1.74677753353963E-12  -1.74677779135073E-12  -1.71053383976499E-14   0.00000000000000E+00   0.00000000000000E+00
      0.00000000000000E+00   0.00000000000000E+00   1.74677770540284E-12   8.59478819218138E-20   1.74677779135072E-12
      1.71053383976498E-14
      8.40000000000000E-01
     -3.72000000000000E+00  -3.72000000000000E+00   0.00000000000000E+00   0.00000000000000E+00  -2.57937368531707E-19
     -3.17757547101633E-12  -3.17757572895370E-12  -1.74126909328119E-14   0.00000000000000E+00   0.00000000000000E+00
      0.00000000000000E+00   0.00000000000000E+00   3.17757564296355E-12   8.59901474126626E-20   3.17757572895370E-12
      1.74126909328119E-14
      8.60000000000000E-01
     -3.88000000000000E+00  -3.88000000000000E+00   0.00000000000000E+00   0.00000000000000E+00  -2.58061424347652E-19
     -5.60744991409422E-12  -5.60745017215564E-12  -1.77152124194807E-14   0.00000000000000E+00   0.00000000000000E+00
      0.00000000000000E+00   0.00000000000000E+00   5.60745008612401E-12   8.60316690653588E-20   5.60745017215568E-12
      1.77152124194808E-14
      8.80000000000000E-01
     -4.04000000000000E+00  -4.04000000000000E+00   0.00000000000000E+00   0.00000000000000E+00  -2.58183848321179E-19
     -9.62229885276506E-12  -9.62229911094890E-12  -1.80130583335298E-14   0.00000000000000E+00   0.00000000000000E+00
      0.00000000000000E+00   0.00000000000000E+00   9.62229902487623E-12   8.60726463191473E-20   9.62229911094888E-12
      1.80130583335299E-14
      9.00000000000000E-01
     -4.20000000000000E+00  -4.20000000000000E+00   0.00000000000000E+00   0.00000000000000E+00  -2.58305010348907E-19
     -1.60847121354811E-11  -1.60847123937861E-11  -1.83061770605153E-14   0.00000000000000E+00   0.00000000000000E+00
      0.00000000000000E+00   0.00000000000000E+00   1.60847123076729E-11   8.61132064376282E-20   1.60847123937861E-11
      1.83061770605153E-14
      9.20000000000000E-01
     -4.36000000000000E+00  -4.36000000000000E+00   0.00000000000000E+00   0.00000000000000E+00  -2.58424967486831E-19
     -2.62328320171031E-11  -2.62328322755281E-11  -1.85944731820177E-14   0.00000000000000E+00   0.00000000000000E+00
      0.00000000000000E+00   0.00000000000000E+00   2.62328321893748E-11   8.61533485648475E-20   2.62328322755282E-11
      1.85944731820177E-14
      9.40000000000001E-01
     -4.52000000000000E+00  -4.52000000000000E+00   0.00000000000000E+00   0.00000000000000E+00  -2.58543460095522E-19
     -4.18093836627248E-11  -4.18093839212683E-11  -1.88779659935706E-14   0.00000000000000E+00   0.00000000000000E+00
      0.00000000000000E+00   0.00000000000000E+00   4.18093838350752E-11   8.61930234559815E-20   4.18093839212682E-11
      1.88779659935706E-14
      9.60000000000001E-01
     -4.68000000000000E+00  -4.68000000000000E+00   0.00000000000000E+00   0.00000000000000E+00  -2.58660150194491E-19
     -6.52338653077296E-11  -6.52338655663897E-11  -1.91568745612840E-14   0.00000000000000E+00   0.00000000000000E+00
      0.00000000000000E+00   0.00000000000000E+00   6.52338654801570E-11   8.62320642225869E-20   6.52338655663891E-11
      1.91568745612840E-14
      9.80000000000001E-01
     -4.84000000000000E+00  -4.84000000000000E+00   0.00000000000000E+00   0.00000000000000E+00  -2.58774781785143E-19
     -9.98294380233425E-11  -9.98294382821173E-11  -1.94315866413582E-14   0.00000000000000E+00   0.00000000000000E+00
      0.00000000000000E+00   0.00000000000000E+00   9.98294381958470E-11   8.62704083969091E-20   9.98294382821174E-11
      1.94315866413580E-14
      1.00000000000000E+00
     -5.00000000000000E+00  -5.00000000000000E+00   0.00000000000000E+00   0.00000000000000E+00  -2.58887378626525E-19
     -1.50107471190221E-10  -1.50107471449108E-10  -1.97025386699947E-14   0.00000000000000E+00   0.00000000000000E+00
      0.00000000000000E+00   0.00000000000000E+00   1.50107471362801E-10   8.63081174592737E-20   1.50107471449109E-10
      1.97025386699946E-14
}
