DF-ISE text

Info {
  version   = 1.0
  type      = xyplot
  datasets  = [
    "time"
    "n1contact OuterVoltage" "n1contact InnerVoltage" "n1contact QuasiFermiPotential" "n1contact DisplacementCurrent" "n1contact eCurrent"
    "n1contact hCurrent" "n1contact TotalCurrent" "n1contact Charge" "n2contact OuterVoltage" "n2contact InnerVoltage"
    "n2contact QuasiFermiPotential" "n2contact DisplacementCurrent" "n2contact eCurrent" "n2contact hCurrent" "n2contact TotalCurrent"
    "n2contact Charge" ]
  functions = [
    Time
    OuterVoltage InnerVoltage QuasiFermiPotential DisplacementCurrent eCurrent
    hCurrent TotalCurrent Charge OuterVoltage InnerVoltage
    QuasiFermiPotential DisplacementCurrent eCurrent hCurrent TotalCurrent
    Charge ]
}

Data {
      0.00000000000000E+00
      0.00000000000000E+00   0.00000000000000E+00   0.00000000000000E+00   0.00000000000000E+00   4.41932077634069E-26
      8.70009029874552E-27   5.28932980621524E-26  -7.49842869654683E-15   0.00000000000000E+00   0.00000000000000E+00
      0.00000000000000E+00   0.00000000000000E+00  -4.41932013453288E-26  -8.70009671682313E-27  -5.28932980621519E-26
      7.49842869654688E-15
      0.00000000000000E+00
      0.00000000000000E+00   0.00000000000000E+00   0.00000000000000E+00   0.00000000000000E+00  -4.42535745756124E-26
     -1.35312546324183E-26  -5.77848292080307E-26  -7.49842824322386E-15   0.00000000000000E+00   0.00000000000000E+00
      0.00000000000000E+00   0.00000000000000E+00   4.42535809936544E-26   1.35312482143763E-26   5.77848292080307E-26
      7.49842824322371E-15
      0.00000000000000E+00
      0.00000000000000E+00   0.00000000000000E+00   0.00000000000000E+00   0.00000000000000E+00   2.63831048350576E-26
      7.55745128967648E-27   3.39405561247341E-26  -7.49842824322366E-15   0.00000000000000E+00   0.00000000000000E+00
      0.00000000000000E+00   0.00000000000000E+00  -2.63830984170156E-26  -7.55745770771848E-27  -3.39405561247340E-26
      7.49842824322350E-15
      1.00000000000000E-01
      1.00000000000000E-03   1.00000000000000E-03   0.00000000000000E+00   0.00000000000000E+00   1.00138036041856E-20
      3.33815238920385E-21   1.33519559933895E-20  -7.49399875803066E-15   0.00000000000000E+00   0.00000000000000E+00
      0.00000000000000E+00   0.00000000000000E+00  -1.00138036041795E-20  -3.33815238920993E-21  -1.33519559933895E-20
      7.49399875803063E-15
      2.00000000000000E-01
      2.00000000000000E-03   2.00000000000000E-03   0.00000000000000E+00   0.00000000000000E+00   2.04225051870072E-20
      6.80794797809223E-21   2.72304531650994E-20  -7.48956691739776E-15   0.00000000000000E+00   0.00000000000000E+00
      0.00000000000000E+00   0.00000000000000E+00  -2.04225051870014E-20  -6.80794797809799E-21  -2.72304531650994E-20
      7.48956691739778E-15
      3.00000000000000E-01
      3.00000000000000E-03   3.00000000000000E-03   0.00000000000000E+00   0.00000000000000E+00   3.12415234677455E-20
      1.04145217863687E-20   4.16560452541142E-20  -7.48513271772496E-15   0.00000000000000E+00   0.00000000000000E+00
      0.00000000000000E+00   0.00000000000000E+00  -3.12415234677400E-20  -1.04145217863742E-20  -4.16560452541142E-20
      7.48513271772499E-15
      4.00000000000000E-01
      4.00000000000000E-03   4.00000000000000E-03   0.00000000000000E+00   0.00000000000000E+00   4.24872219463584E-20
      1.41633317595613E-20   5.66505537059197E-20  -7.48069615536416E-15   0.00000000000000E+00   0.00000000000000E+00
      0.00000000000000E+00   0.00000000000000E+00  -4.24872219463532E-20  -1.41633317595664E-20  -5.66505537059196E-20
      7.48069615536411E-15
      5.00000000000000E-01
      5.00000000000000E-03   5.00000000000000E-03   0.00000000000000E+00   0.00000000000000E+00   5.41760976080160E-20
      1.80598773791279E-20   7.22359749871439E-20  -7.47625722663395E-15   0.00000000000000E+00   0.00000000000000E+00
      0.00000000000000E+00   0.00000000000000E+00  -5.41760976080111E-20  -1.80598773791328E-20  -7.22359749871439E-20
      7.47625722663398E-15
      6.00000000000000E-01
      6.00000000000000E-03   6.00000000000000E-03   0.00000000000000E+00   0.00000000000000E+00   6.63258531516699E-20
      2.21100596538839E-20   8.84359128055538E-20  -7.47181592780939E-15   0.00000000000000E+00   0.00000000000000E+00
      0.00000000000000E+00   0.00000000000000E+00  -6.63258531516653E-20  -2.21100596538885E-20  -8.84359128055538E-20
      7.47181592780942E-15
      7.00000000000000E-01
      7.00000000000000E-03   7.00000000000000E-03   0.00000000000000E+00   0.00000000000000E+00   7.89548681809297E-20
      2.63200036902142E-20   1.05274871871144E-19  -7.46737225512440E-15   0.00000000000000E+00   0.00000000000000E+00
      0.00000000000000E+00   0.00000000000000E+00  -7.89548681809253E-20  -2.63200036902186E-20  -1.05274871871144E-19
      7.46737225512454E-15
      8.00000000000000E-01
      8.00000000000000E-03   8.00000000000000E-03   0.00000000000000E+00   0.00000000000000E+00   9.20815859327894E-20
      3.06958610957105E-20   1.22777447028500E-19  -7.46292620477109E-15   0.00000000000000E+00   0.00000000000000E+00
      0.00000000000000E+00   0.00000000000000E+00  -9.20815859327852E-20  -3.06958610957146E-20  -1.22777447028500E-19
      7.46292620477106E-15
      9.00000000000000E-01
      9.00000000000000E-03   9.00000000000000E-03   0.00000000000000E+00   0.00000000000000E+00   1.05725978717046E-19
      3.52442867001931E-20   1.40970265417239E-19  -7.45847777289943E-15   0.00000000000000E+00   0.00000000000000E+00
      0.00000000000000E+00   0.00000000000000E+00  -1.05725978717042E-19  -3.52442867001970E-20  -1.40970265417239E-19
      7.45847777289931E-15
      1.00000000000000E+00
      1.00000000000000E-02   1.00000000000000E-02   0.00000000000000E+00   0.00000000000000E+00   1.19908112059764E-19
      3.99719701539028E-20   1.59880082213667E-19  -7.45402695561701E-15   0.00000000000000E+00   0.00000000000000E+00
      0.00000000000000E+00   0.00000000000000E+00  -1.19908112059760E-19  -3.99719701539065E-20  -1.59880082213667E-19
      7.45402695561693E-15
      0.00000000000000E+00
      1.00000000000000E-02   1.00000000000000E-02   0.00000000000000E+00   0.00000000000000E+00   1.19908138623986E-19
      3.99719799765890E-20   1.59880118600575E-19  -7.45402695561432E-15   0.00000000000000E+00   0.00000000000000E+00
      0.00000000000000E+00   0.00000000000000E+00  -1.19908138623982E-19  -3.99719799765927E-20  -1.59880118600575E-19
      7.45402695561424E-15
      1.00000000000000E-01
      1.90000000000000E-02   1.90000000000000E-02   0.00000000000000E+00   0.00000000000000E+00   2.75548600298614E-19
      9.18554872241568E-20   3.67404087522771E-19  -7.41386159300769E-15   0.00000000000000E+00   0.00000000000000E+00
      0.00000000000000E+00   0.00000000000000E+00  -2.75548600298611E-19  -9.18554872241590E-20  -3.67404087522770E-19
      7.41386159300779E-15
      2.00000000000000E-01
      2.80000000000000E-02   2.80000000000000E-02   0.00000000000000E+00   0.00000000000000E+00   4.95980968511842E-19
      1.65337660083343E-19   6.61318628595185E-19  -7.37349964050285E-15   0.00000000000000E+00   0.00000000000000E+00
      0.00000000000000E+00   0.00000000000000E+00  -4.95980968511840E-19  -1.65337660083344E-19  -6.61318628595185E-19
      7.37349964050283E-15
      3.00000000000000E-01
      3.70000000000000E-02   3.70000000000000E-02   0.00000000000000E+00   0.00000000000000E+00   8.08180337255496E-19
      2.69410759584379E-19   1.07759109683988E-18  -7.33293776830125E-15   0.00000000000000E+00   0.00000000000000E+00
      0.00000000000000E+00   0.00000000000000E+00  -8.08180337255495E-19  -2.69410759584380E-19  -1.07759109683987E-18
      7.33293776830132E-15
      4.00000000000000E-01
      4.60000000000000E-02   4.60000000000000E-02   0.00000000000000E+00   0.00000000000000E+00   1.25035113670753E-18
      4.16810408788264E-19   1.66716154549579E-18  -7.29217232890336E-15   0.00000000000000E+00   0.00000000000000E+00
      0.00000000000000E+00   0.00000000000000E+00  -1.25035113670753E-18  -4.16810408788264E-19  -1.66716154549579E-18
      7.29217232890348E-15
      5.00000000000000E-01
      5.50000000000000E-02   5.50000000000000E-02   0.00000000000000E+00   0.00000000000000E+00   1.87660573872020E-18
      6.25575155652254E-19   2.50218089437245E-18  -7.25119934035675E-15   0.00000000000000E+00   0.00000000000000E+00
      0.00000000000000E+00   0.00000000000000E+00  -1.87660573872020E-18  -6.25575155652254E-19  -2.50218089437246E-18
      7.25119934035675E-15
      6.00000000000000E-01
      6.40000000000000E-02   6.40000000000000E-02   0.00000000000000E+00   0.00000000000000E+00   2.76358314543722E-18
      9.21252914529283E-19   3.68483605996650E-18  -7.21001447061215E-15   0.00000000000000E+00   0.00000000000000E+00
      0.00000000000000E+00   0.00000000000000E+00  -2.76358314543722E-18  -9.21252914529283E-19  -3.68483605996650E-18
      7.21001447061220E-15
      7.00000000000000E-01
      7.30000000000000E-02   7.30000000000000E-02   0.00000000000000E+00   0.00000000000000E+00   4.01983006894743E-18
      1.34002814634127E-18   5.35985821528870E-18  -7.16861302321932E-15   0.00000000000000E+00   0.00000000000000E+00
      0.00000000000000E+00   0.00000000000000E+00  -4.01983006894743E-18  -1.34002814634127E-18  -5.35985821528870E-18
      7.16861302321932E-15
      8.00000000000000E-01
      8.20000000000000E-02   8.20000000000000E-02   0.00000000000000E+00   0.00000000000000E+00   5.79908333004434E-18
      1.93314959648646E-18   7.73223292653080E-18  -7.12698992462731E-15   0.00000000000000E+00   0.00000000000000E+00
      0.00000000000000E+00   0.00000000000000E+00  -5.79908333004434E-18  -1.93314959648646E-18  -7.73223292653080E-18
      7.12698992462738E-15
      9.00000000000000E-01
      9.10000000000000E-02   9.10000000000000E-02   0.00000000000000E+00   0.00000000000000E+00   8.31908729852333E-18
      2.77320313314226E-18   1.10922904316656E-17  -7.08513971337604E-15   0.00000000000000E+00   0.00000000000000E+00
      0.00000000000000E+00   0.00000000000000E+00  -8.31908729852333E-18  -2.77320313314226E-18  -1.10922904316656E-17
      7.08513971337608E-15
      1.00000000000000E+00
      1.00000000000000E-01   1.00000000000000E-01   0.00000000000000E+00   0.00000000000000E+00   1.18882343105865E-17
      3.96299243667256E-18   1.58512267472591E-17  -7.04305653147737E-15   0.00000000000000E+00   0.00000000000000E+00
      0.00000000000000E+00   0.00000000000000E+00  -1.18882343105865E-17  -3.96299243667256E-18  -1.58512267472591E-17
      7.04305653147725E-15
      0.00000000000000E+00
      1.00000000000000E-01   1.00000000000000E-01   0.00000000000000E+00   0.00000000000000E+00   1.18882341623099E-17
      3.96299238824070E-18   1.58512265505506E-17  -7.04305653147738E-15   0.00000000000000E+00   0.00000000000000E+00
      0.00000000000000E+00   0.00000000000000E+00  -1.18882341623099E-17  -3.96299238824070E-18  -1.58512265505506E-17
      7.04305653147725E-15
      2.00000000000000E-02
      1.18000000000000E-01   1.18000000000000E-01   0.00000000000000E+00   0.00000000000000E+00   2.41029531428717E-17
      8.03481561156375E-18   3.21377687544354E-17  -6.95816580724997E-15   0.00000000000000E+00   0.00000000000000E+00
      0.00000000000000E+00   0.00000000000000E+00  -2.41029531428717E-17  -8.03481561156375E-18  -3.21377687544354E-17
      6.95816580725002E-15
      4.00000000000000E-02
      1.36000000000000E-01   1.36000000000000E-01   0.00000000000000E+00   0.00000000000000E+00   4.86054332427132E-17
      1.62028063994219E-17   6.48082396421351E-17  -6.87226279802037E-15   0.00000000000000E+00   0.00000000000000E+00
      0.00000000000000E+00   0.00000000000000E+00  -4.86054332427132E-17  -1.62028063994219E-17  -6.48082396421351E-17
      6.87226279802034E-15
      6.00000000000000E-02
      1.54000000000000E-01   1.54000000000000E-01   0.00000000000000E+00   0.00000000000000E+00   9.77569827964806E-17
      3.25876448982863E-17   1.30344627694767E-16  -6.78528613477808E-15   0.00000000000000E+00   0.00000000000000E+00
      0.00000000000000E+00   0.00000000000000E+00  -9.77569827964806E-17  -3.25876448982863E-17  -1.30344627694767E-16
      6.78528613477815E-15
      8.00000000000000E-02
      1.72000000000000E-01   1.72000000000000E-01   0.00000000000000E+00   0.00000000000000E+00   1.96354386716858E-16
      6.54554099861757E-17   2.61809796703034E-16  -6.69716832642613E-15   0.00000000000000E+00   0.00000000000000E+00
      0.00000000000000E+00   0.00000000000000E+00  -1.96354386716858E-16  -6.54554099861757E-17  -2.61809796703034E-16
      6.69716832642616E-15
      1.00000000000000E-01
      1.90000000000000E-01   1.90000000000000E-01   0.00000000000000E+00   0.00000000000000E+00   3.94136733865422E-16
      1.31386762292571E-16   5.25523496157993E-16  -6.60783632031685E-15   0.00000000000000E+00   0.00000000000000E+00
      0.00000000000000E+00   0.00000000000000E+00  -3.94136733865422E-16  -1.31386762292571E-16  -5.25523496157993E-16
      6.60783632031691E-15
      1.20000000000000E-01
      2.08000000000000E-01   2.08000000000000E-01   0.00000000000000E+00   0.00000000000000E+00   7.90881115127690E-16
      2.63642642869298E-16   1.05452375799699E-15  -6.51721234476278E-15   0.00000000000000E+00   0.00000000000000E+00
      0.00000000000000E+00   0.00000000000000E+00  -7.90881115127690E-16  -2.63642642869298E-16  -1.05452375799699E-15
      6.51721234476266E-15
      1.40000000000000E-01
      2.26000000000000E-01   2.26000000000000E-01   0.00000000000000E+00   0.00000000000000E+00   1.58673450332712E-15
      5.28942503397675E-16   2.11567700672480E-15  -6.42521502522189E-15   0.00000000000000E+00   0.00000000000000E+00
      0.00000000000000E+00   0.00000000000000E+00  -1.58673450332712E-15  -5.28942503397675E-16  -2.11567700672480E-15
      6.42521502522189E-15
      1.60000000000000E-01
      2.44000000000000E-01   2.44000000000000E-01   0.00000000000000E+00   0.00000000000000E+00   3.18318079809517E-15
      1.06112183977863E-15   4.24430263787380E-15  -6.33176073583716E-15   0.00000000000000E+00   0.00000000000000E+00
      0.00000000000000E+00   0.00000000000000E+00  -3.18318079809517E-15  -1.06112183977863E-15  -4.24430263787380E-15
      6.33176073583720E-15
      1.80000000000000E-01
      2.62000000000000E-01   2.62000000000000E-01   0.00000000000000E+00   0.00000000000000E+00   6.38557283127876E-15
      2.12864652860887E-15   8.51421935988763E-15  -6.23676511252837E-15   0.00000000000000E+00   0.00000000000000E+00
      0.00000000000000E+00   0.00000000000000E+00  -6.38557283127876E-15  -2.12864652860887E-15  -8.51421935988763E-15
      6.23676511252836E-15
      2.00000000000000E-01
      2.80000000000000E-01   2.80000000000000E-01   0.00000000000000E+00   0.00000000000000E+00   1.28093959567513E-14
      4.27004130582428E-15   1.70794372625756E-14  -6.14014461640571E-15   0.00000000000000E+00   0.00000000000000E+00
      0.00000000000000E+00   0.00000000000000E+00  -1.28093959567513E-14  -4.27004130582428E-15  -1.70794372625756E-14
      6.14014461640583E-15
      2.20000000000000E-01
      2.98000000000000E-01   2.98000000000000E-01   0.00000000000000E+00   0.00000000000000E+00   2.56951999107995E-14
      8.56554812709900E-15   3.42607480378985E-14  -6.04181800155625E-15   0.00000000000000E+00   0.00000000000000E+00
      0.00000000000000E+00   0.00000000000000E+00  -2.56951999107995E-14  -8.56554812709900E-15  -3.42607480378985E-14
      6.04181800155627E-15
      2.40000000000000E-01
      3.16000000000000E-01   3.16000000000000E-01   0.00000000000000E+00   0.00000000000000E+00   5.15432812525057E-14
      1.71820488704911E-14   6.87253301229969E-14  -5.94170751435397E-15   0.00000000000000E+00   0.00000000000000E+00
      0.00000000000000E+00   0.00000000000000E+00  -5.15432812525057E-14  -1.71820488704911E-14  -6.87253301229969E-14
      5.94170751435387E-15
      2.60000000000000E-01
      3.34000000000000E-01   3.34000000000000E-01   0.00000000000000E+00   0.00000000000000E+00   1.03392704044788E-13
      3.44661287283386E-14   1.37858832773126E-13  -5.83973963658695E-15   0.00000000000000E+00   0.00000000000000E+00
      0.00000000000000E+00   0.00000000000000E+00  -1.03392704044788E-13  -3.44661287283386E-14  -1.37858832773126E-13
      5.83973963658691E-15
      2.80000000000000E-01
      3.52000000000000E-01   3.52000000000000E-01   0.00000000000000E+00   0.00000000000000E+00   2.07398692373773E-13
      6.91366521827518E-14   2.76535344556525E-13  -5.73584518404195E-15   0.00000000000000E+00   0.00000000000000E+00
      0.00000000000000E+00   0.00000000000000E+00  -2.07398692373773E-13  -6.91366521827518E-14  -2.76535344556525E-13
      5.73584518404201E-15
      3.00000000000000E-01
      3.70000000000000E-01   3.70000000000000E-01   0.00000000000000E+00   0.00000000000000E+00   4.16026182433495E-13
      1.38682834940028E-13   5.54709017373522E-13  -5.62995858495927E-15   0.00000000000000E+00   0.00000000000000E+00
      0.00000000000000E+00   0.00000000000000E+00  -4.16026182433495E-13  -1.38682834940028E-13  -5.54709017373522E-13
      5.62995858495913E-15
      3.20000000000000E-01
      3.88000000000000E-01   3.88000000000000E-01   0.00000000000000E+00   0.00000000000000E+00   8.34514608737962E-13
      2.78186276336848E-13   1.11270088507481E-12  -5.52201618535031E-15   0.00000000000000E+00   0.00000000000000E+00
      0.00000000000000E+00   0.00000000000000E+00  -8.34514608737962E-13  -2.78186276336848E-13  -1.11270088507481E-12
      5.52201618535032E-15
      3.40000000000000E-01
      4.06000000000000E-01   4.06000000000000E-01   0.00000000000000E+00   0.00000000000000E+00   1.67396307862035E-12
      5.58016881589919E-13   2.23197996021026E-12  -5.41195345499620E-15   0.00000000000000E+00   0.00000000000000E+00
      0.00000000000000E+00   0.00000000000000E+00  -1.67396307862035E-12  -5.58016881589919E-13  -2.23197996021026E-12
      5.41195345499612E-15
      3.60000000000000E-01
      4.24000000000000E-01   4.24000000000000E-01   0.00000000000000E+00   0.00000000000000E+00   3.35781239015984E-12
      1.11932857325544E-12   4.47714096341528E-12  -5.29970099338281E-15   0.00000000000000E+00   0.00000000000000E+00
      0.00000000000000E+00   0.00000000000000E+00  -3.35781239015984E-12  -1.11932857325544E-12  -4.47714096341528E-12
      5.29970099338273E-15
      3.80000000000000E-01
      4.42000000000000E-01   4.42000000000000E-01   0.00000000000000E+00   0.00000000000000E+00   6.73543321019589E-12
      2.24525871645708E-12   8.98069192665297E-12  -5.18517925527567E-15   0.00000000000000E+00   0.00000000000000E+00
      0.00000000000000E+00   0.00000000000000E+00  -6.73543321019589E-12  -2.24525871645708E-12  -8.98069192665297E-12
      5.18517925527557E-15
      4.00000000000000E-01
      4.60000000000000E-01   4.60000000000000E-01   0.00000000000000E+00   0.00000000000000E+00   1.35105519981619E-11
      4.50374339813976E-12   1.80142953963017E-11  -5.06829193155858E-15   0.00000000000000E+00   0.00000000000000E+00
      0.00000000000000E+00   0.00000000000000E+00  -1.35105519981619E-11  -4.50374339813976E-12  -1.80142953963017E-11
      5.06829193155859E-15
      4.20000000000000E-01
      4.78000000000000E-01   4.78000000000000E-01   0.00000000000000E+00   0.00000000000000E+00   2.71006039978635E-11
      9.03398149996729E-12   3.61345854978308E-11  -4.94891793860556E-15   0.00000000000000E+00   0.00000000000000E+00
      0.00000000000000E+00   0.00000000000000E+00  -2.71006039978635E-11  -9.03398149996729E-12  -3.61345854978308E-11
      4.94891793860574E-15
      4.40000000000000E-01
      4.96000000000000E-01   4.96000000000000E-01   0.00000000000000E+00   0.00000000000000E+00   5.43604435442224E-11
      1.81210305430573E-11   7.24814740872797E-11  -4.82690200198027E-15   0.00000000000000E+00   0.00000000000000E+00
      0.00000000000000E+00   0.00000000000000E+00  -5.43604435442224E-11  -1.81210305430573E-11  -7.24814740872797E-11
      4.82690200198029E-15
      4.60000000000000E-01
      5.14000000000000E-01   5.14000000000000E-01   0.00000000000000E+00   0.00000000000000E+00   1.09039773221837E-10
      3.63483336822386E-11   1.45388106904076E-10  -4.70204388851039E-15   0.00000000000000E+00   0.00000000000000E+00
      0.00000000000000E+00   0.00000000000000E+00  -1.09039773221837E-10  -3.63483336822386E-11  -1.45388106904076E-10
      4.70204388851036E-15
      4.80000000000000E-01
      5.32000000000000E-01   5.32000000000000E-01   0.00000000000000E+00   0.00000000000000E+00   2.18718006330442E-10
      7.29094399149106E-11   2.91627446245353E-10  -4.57408647346805E-15   0.00000000000000E+00   0.00000000000000E+00
      0.00000000000000E+00   0.00000000000000E+00  -2.18718006330442E-10  -7.29094399149106E-11  -2.91627446245353E-10
      4.57408647346797E-15
      5.00000000000000E-01
      5.50000000000000E-01   5.50000000000000E-01   0.00000000000000E+00   0.00000000000000E+00   4.38713938324549E-10
      1.46244756081786E-10   5.84958694406335E-10  -4.44270306183236E-15   0.00000000000000E+00   0.00000000000000E+00
      0.00000000000000E+00   0.00000000000000E+00  -4.38713938324549E-10  -1.46244756081786E-10  -5.84958694406335E-10
      4.44270306183236E-15
      5.20000000000000E-01
      5.68000000000000E-01   5.68000000000000E-01   0.00000000000000E+00   0.00000000000000E+00   8.79984741482656E-10
      2.93341593076537E-10   1.17332633455919E-09  -4.30748475145560E-15   0.00000000000000E+00   0.00000000000000E+00
      0.00000000000000E+00   0.00000000000000E+00  -8.79984741482656E-10  -2.93341593076537E-10  -1.17332633455919E-09
      4.30748475145566E-15
      5.40000000000000E-01
      5.86000000000000E-01   5.86000000000000E-01   0.00000000000000E+00   0.00000000000000E+00   1.76508237377333E-09
      5.88387046531229E-10   2.35346942030455E-09  -4.16792915960430E-15   0.00000000000000E+00   0.00000000000000E+00
      0.00000000000000E+00   0.00000000000000E+00  -1.76508237377333E-09  -5.88387046531229E-10  -2.35346942030455E-09
      4.16792915960432E-15
      5.60000000000000E-01
      6.04000000000000E-01   6.04000000000000E-01   0.00000000000000E+00   0.00000000000000E+00   3.54037999367272E-09
      1.18017824997590E-09   4.72055824364862E-09  -4.02343253286480E-15   0.00000000000000E+00   0.00000000000000E+00
      0.00000000000000E+00   0.00000000000000E+00  -3.54037999367272E-09  -1.18017824997590E-09  -4.72055824364862E-09
      4.02343253286477E-15
      5.80000000000000E-01
      6.22000000000000E-01   6.22000000000000E-01   0.00000000000000E+00   0.00000000000000E+00   7.10113988863680E-09
      2.36714782086950E-09   9.46828770950630E-09  -3.87328806856120E-15   0.00000000000000E+00   0.00000000000000E+00
      0.00000000000000E+00   0.00000000000000E+00  -7.10113988863680E-09  -2.36714782086950E-09  -9.46828770950630E-09
      3.87328806856133E-15
      6.00000000000000E-01
      6.40000000000000E-01   6.40000000000000E-01   0.00000000000000E+00   0.00000000000000E+00   1.42428334258470E-08
      4.74780922459342E-09   1.89906426504404E-08  -3.71669405888742E-15   0.00000000000000E+00   0.00000000000000E+00
      0.00000000000000E+00   0.00000000000000E+00  -1.42428334258470E-08  -4.74780922459342E-09  -1.89906426504404E-08
      3.71669405888738E-15
      6.20000000000000E-01
      6.58000000000000E-01   6.58000000000000E-01   0.00000000000000E+00   0.00000000000000E+00   2.85659702366703E-08
      9.52237667318894E-09   3.80883469098592E-08  -3.55277602008755E-15   0.00000000000000E+00   0.00000000000000E+00
      0.00000000000000E+00   0.00000000000000E+00  -2.85659702366703E-08  -9.52237667318894E-09  -3.80883469098592E-08
      3.55277602008750E-15
      6.40000000000000E-01
      6.76000000000000E-01   6.76000000000000E-01   0.00000000000000E+00   0.00000000000000E+00   5.72894320018633E-08
      1.90972283721630E-08   7.63866603740264E-08  -3.38062709694188E-15   0.00000000000000E+00   0.00000000000000E+00
      0.00000000000000E+00   0.00000000000000E+00  -5.72894320018633E-08  -1.90972283721630E-08  -7.63866603740264E-08
      3.38062709694181E-15
      6.60000000000000E-01
      6.94000000000000E-01   6.94000000000000E-01   0.00000000000000E+00   0.00000000000000E+00   1.14881706500926E-07
      3.82953498538071E-08   1.53177056354733E-07  -3.19937077885482E-15   0.00000000000000E+00   0.00000000000000E+00
      0.00000000000000E+00   0.00000000000000E+00  -1.14881706500926E-07  -3.82953498538071E-08  -1.53177056354733E-07
      3.19937077885472E-15
      6.80000000000000E-01
      7.12000000000000E-01   7.12000000000000E-01   0.00000000000000E+00   0.00000000000000E+00   2.30321425489532E-07
      7.67765590616601E-08   3.07097984551192E-07  -3.00824994367201E-15   0.00000000000000E+00   0.00000000000000E+00
      0.00000000000000E+00   0.00000000000000E+00  -2.30321425489532E-07  -7.67765590616601E-08  -3.07097984551192E-07
      3.00824994367200E-15
      7.00000000000000E-01
      7.30000000000000E-01   7.30000000000000E-01   0.00000000000000E+00   0.00000000000000E+00   4.61570636045311E-07
      1.53861955906380E-07   6.15432591951691E-07  -2.80674797800364E-15   0.00000000000000E+00   0.00000000000000E+00
      0.00000000000000E+00   0.00000000000000E+00  -4.61570636045311E-07  -1.53861955906380E-07  -6.15432591951691E-07
      2.80674797800358E-15
      7.20000000000000E-01
      7.48000000000000E-01   7.48000000000000E-01   0.00000000000000E+00   0.00000000000000E+00   9.24252025941966E-07
      3.08092802681530E-07   1.23234482862350E-06  -2.59475359348175E-15   0.00000000000000E+00   0.00000000000000E+00
      0.00000000000000E+00   0.00000000000000E+00  -9.24252025941966E-07  -3.08092802681530E-07  -1.23234482862350E-06
      2.59475359348185E-15
      7.40000000000000E-01
      7.66000000000000E-01   7.66000000000000E-01   0.00000000000000E+00   0.00000000000000E+00   1.84778646048482E-06
      6.15941716766308E-07   2.46372817725112E-06  -2.37279305838298E-15   0.00000000000000E+00   0.00000000000000E+00
      0.00000000000000E+00   0.00000000000000E+00  -1.84778646048482E-06  -6.15941716766308E-07  -2.46372817725112E-06
      2.37279305838294E-15
      7.60000000000000E-01
      7.84000000000000E-01   7.84000000000000E-01   0.00000000000000E+00   0.00000000000000E+00   3.68265454779395E-06
      1.22756042798746E-06   4.91021497578141E-06  -2.14236945057368E-15   0.00000000000000E+00   0.00000000000000E+00
      0.00000000000000E+00   0.00000000000000E+00  -3.68265454779395E-06  -1.22756042798746E-06  -4.91021497578141E-06
      2.14236945057366E-15
      7.80000000000000E-01
      8.02000000000000E-01   8.02000000000000E-01   0.00000000000000E+00   0.00000000000000E+00   7.29559202291668E-06
      2.43182050404625E-06   9.72741252696292E-06  -1.90644879968059E-15   0.00000000000000E+00   0.00000000000000E+00
      0.00000000000000E+00   0.00000000000000E+00  -7.29559202291668E-06  -2.43182050404625E-06  -9.72741252696292E-06
      1.90644879968058E-15
      8.00000000000000E-01
      8.20000000000000E-01   8.20000000000000E-01   0.00000000000000E+00   0.00000000000000E+00   1.42913847840166E-05
      4.76349111392352E-06   1.90548758979401E-05  -1.67005385094064E-15   0.00000000000000E+00   0.00000000000000E+00
      0.00000000000000E+00   0.00000000000000E+00  -1.42913847840166E-05  -4.76349111392352E-06  -1.90548758979401E-05
      1.67005385094064E-15
      8.20000000000000E-01
      8.38000000000000E-01   8.38000000000000E-01   0.00000000000000E+00   0.00000000000000E+00   2.74428717797845E-05
      9.14630552488445E-06   3.65891773046689E-05  -1.44064510761804E-15   0.00000000000000E+00   0.00000000000000E+00
      0.00000000000000E+00   0.00000000000000E+00  -2.74428717797845E-05  -9.14630552488445E-06  -3.65891773046689E-05
      1.44064510761799E-15
      8.40000000000000E-01
      8.56000000000000E-01   8.56000000000000E-01   0.00000000000000E+00   0.00000000000000E+00   5.10228146390495E-05
      1.70029414681408E-05   6.80257561071903E-05  -1.22749051225464E-15   0.00000000000000E+00   0.00000000000000E+00
      0.00000000000000E+00   0.00000000000000E+00  -5.10228146390495E-05  -1.70029414681408E-05  -6.80257561071903E-05
      1.22749051225463E-15
      8.60000000000000E-01
      8.74000000000000E-01   8.74000000000000E-01   0.00000000000000E+00   0.00000000000000E+00   9.05967022130146E-05
      3.01849464265598E-05   1.20781648639574E-04  -1.03927586509457E-15   0.00000000000000E+00   0.00000000000000E+00
      0.00000000000000E+00   0.00000000000000E+00  -9.05967022130146E-05  -3.01849464265598E-05  -1.20781648639574E-04
      1.03927586509458E-15
      8.80000000000000E-01
      8.92000000000000E-01   8.92000000000000E-01   0.00000000000000E+00   0.00000000000000E+00   1.52036010877818E-04
      5.06432136909494E-05   2.02679224568768E-04  -8.80911726926098E-16   0.00000000000000E+00   0.00000000000000E+00
      0.00000000000000E+00   0.00000000000000E+00  -1.52036010877818E-04  -5.06432136909494E-05  -2.02679224568768E-04
      8.80911726926100E-16
      9.00000000000000E-01
      9.10000000000000E-01   9.10000000000000E-01   0.00000000000000E+00   0.00000000000000E+00   2.40310401798834E-04
      8.00262323804253E-05   3.20336634179259E-04  -7.52212019926774E-16   0.00000000000000E+00   0.00000000000000E+00
      0.00000000000000E+00   0.00000000000000E+00  -2.40310401798834E-04  -8.00262323804253E-05  -3.20336634179259E-04
      7.52212019926775E-16
      9.20000000000000E-01
      9.28000000000000E-01   9.28000000000000E-01   0.00000000000000E+00   0.00000000000000E+00   3.58902205225073E-04
      1.19486857022986E-04   4.78389062248060E-04  -6.49380088882791E-16   0.00000000000000E+00   0.00000000000000E+00
      0.00000000000000E+00   0.00000000000000E+00  -3.58902205225073E-04  -1.19486857022986E-04  -4.78389062248060E-04
      6.49380088882792E-16
      9.40000000000001E-01